1 : COH2_rhf_aug-cc-pVDZ.inp
2 : .
3 : 1
4 : 1
----- GAMESS execution script 'rungms' -----
This job is running on host ccp01
under operating system Linux at Tue 14 Jun 2022 10:05:09 AM CEST
Available scratch disk space (Kbyte units) at beginning of the job is
Filesystem                          1K-blocks       Used   Available Use% Mounted on
130.89.6.81:/exports/home/filippi 17395693568 4270102528 12252262400  26% /home/filippi
GAMESS temporary binary files will be written to .
GAMESS supplementary output files will be written to .
Copying input file ./COH2_rhf_aug-cc-pVDZ.inp to your run's scratch directory...

 Distributed Data Interface kickoff program.
 Initiating 1 compute processes on 1 nodes to run the following command:
 /software/gamess_intel_oneapi/gamess.00.x COH2_rhf_aug-cc-pVDZ 

          *******************************************************
          *                                                     *
          *      GAMESS VERSION = 30 SEP 2021 (R2 Patch 1)      *
          *                                                     *
          *              doi.org/10.1063/5.0005188              *
          *                                                     *
          **************** 64 BIT INTEL VERSION *****************

  GAMESS HAS BEEN MADE POSSIBLE WITH IMPORTANT CONTRIBUTIONS FROM
  THE FOLLOWING INDIVIDUALS (IN ALPHABETICAL ORDER):

     IVANA ADAMOVIC, CHRISTINE AIKENS, TOMOKO AKAMA,
     YURI ALEXEEV, YURIKO AOKI, POOJA ARORA, TOSHIO ASADA,
     ANDREY ASADCHEV, KIM K. BALDRIDGE, PRADIPTA BANDYOPADHYAY,
     TAYLOR A. BARNES, MARIA BARYSZ, ROB BELL,
     JONATHAN BENTZ, COLLEEN BERTONI,
     JERRY A. BOATZ, BRETT BODE, KURT BRORSEN, KURT R. BRORSEN,
     LAIMUTIS BYTAUTAS, CALEB CARLIN, LAURA CARRINGTON,
     GALINA CHABAN, BENOIT CHAMPAGNE, WEI CHEN, MAHITO CHIBA,
     DAN CHIPMAN, CHEOL HO CHOI, TANNER CULPITT,
     DIPAYAN DATTA, PAUL DAY, ALBERT DEFUSCO,
     NUWAN DESILVA, J. EMILIANO DEUSTUA,
     TIM DUDLEY, MICHEL DUPUIS, STEVEN T. ELBERT,
     DMITRI FEDOROV, ALEX FINDLATER, GRAHAM FLETCHER,
     MARK FREITAG, CHRISTIAN FRIEDL, DAVID GARMER,
     IGOR S. GERASIMOV, KURT GLAESEMANN, MARK S. GORDON,
     JEFFREY GOUR, FENG LONG GU, EMILIE B. GUIDEZ,
     ANASTASIA GUNINA, SHARON HAMMES-SCHIFFER, MASATAKE HARUTA,
     KIMIHIKO HIRAO, YASUHIRO IKABATA, TZVETELIN IORDANOV,
     STEPHAN IRLE, KAZUYA ISHIMURA, JOE IVANIC, FRANK JENSEN,
     JAN H. JENSEN, VISVALDAS KAIRYS, MUNEAKI KAMIYA,
     MICHIO KATOUDA, NAOAKI KAWAKAMI, DAN KEMP, BERNARD KIRTMAN,
     KAZUO KITAURA, MARIUSZ KLOBUKOWSKI, MASATO KOBAYASHI,
     PRAKASHAN KORAMBATH, JACEK KORCHOWIEC, SHIRO KOSEKI,
     KAROL KOWALSKI, JIMMY KROMANN, STANISLAW KUCHARSKI,
     HENRY KURTZ, SAROM SOK LEANG, HUI LI, SHUHUA LI, WEI LI,
     JESSE LUTZ, ALEKSANDR O. LYKHIN, MARCIN MAKOWSKI,
     JOANI MATO, NIKITA MATSUNAGA, BENEDETTA MENNUCCI,
     GRANT MERRILL, NORIYUKI MINEZAWA, VLADIMIR MIRONOV,
     EISAKU MIYOSHI, JOHN A. MONTGOMERY JR., HIROTOSHI MORI,
     JONATHAN MULLIN, MONIKA MUSIAL, SHIGERU NAGASE,
     TAKESHI NAGATA, HIROMI NAKAI, TAKAHITO NAKAJIMA,
     YUYA NAKAJIMA, HARUYUKI NAKANO, HIROYA NAKATA, SEAN NEDD,
     HEATHER NETZLOFF, KIET A. NGUYEN, YOSHIO NISHIMOTO,
     BOSILJKA NJEGIC, RYAN OLSON, MIKE PAK, ROBERTO PEVERATI,
     BUU PHAM, PIOTR PIECUCH, ANNA POMOGAEVA, DAVID POOLE,
     SPENCER PRUITT, OLIVIER QUINET, LUKE ROSKOP,
     KLAUS RUEDENBERG, ANDREW SAND, TOSAPORN SATTASATHUCHANA,
     NOZOMI SAWADA, MICHAEL W. SCHMIDT, PATRICK E. SCHNEIDER,
     JUNJI SEINO, PRACHI SHARMA, JUN SHEN, JIM SHOEMAKER,
     YINAN SHU, DEJUN SI, JONATHAN SKONE, LYUDMILA SLIPCHENKO,
     TONY SMITH, JIE SONG, MARK SPACKMAN, CASPER STEINMANN,
     WALT STEVENS, PEIFENG SU, SHUJUN SU, CHET SWALINA,
     TETSUYA TAKETSUGU, ZHEN TAO, NANDUN THELLAMUREGE
     SEIKEN TOKURA, JACOPO TOMASI, TSUGUKI TOUMA, TAKAO TSUNEDA,
     HIROAKI UMEDA, JORGE LUIS GALVEZ VALLEJO, YALI WANG,
     SIMON WEBB, AARON WEST, THERESA L. WINDUS, MARTA WLOCH,
     PENG XU, KIYOSHI YAGI, SUSUMU YANAGISAWA, YANG YANG,
     SOOHAENG YOO, TAKESHI YOSHIKAWA, FEDERICO ZAHARIEV,
     TOBY ZENG

  WHO ARE SUPPORTED BY THEIR INSTITUTION/UNIVERSITY/COMPANY/GROUP
  (IN ALPHABETICAL ORDER):

     EP ANALYTICS, FACULTES UNIVERSITAIRES NOTRE-DAME DE LA PAIX,
     INSTITUTE FOR MOLECULAR SCIENCE, IOWA STATE UNIVERSITY,
     JACKSON STATE UNIVERSITY, JOHANNES KEPLER UNIVERSITY LINZ,
     KYUSHU UNIVERSITY, MICHIGAN STATE UNIVERSITY,
     MIE UNIVERSITY, THE MOLECULAR SCIENCES SOFTWARE INSTITUTE,
     MOSCOW STATE UNIVERSITY,
     N. COPERNICUS UNIVERSITY, NAGOYA UNIVERSITY,
     NANJING UNIVERSITY, NAT. INST. OF ADVANCED INDUSTRIAL
     SCIENCE AND TECHNOLOGY, NATIONAL INST. OF STANDARDS AND
     TECHNOLOGY, NESMEYANOV INSTITUTE OF ORGANOELEMENT COMPOUNDS
     OF RUSSIAN ACADEMY OF SCIENCES, OSAKA PREFECTURE UNIVERSITY,
     PENNSYLVANIA STATE UNIVERSITY, TOKYO INSTITUTE OF TECHNOLOGY,
     UNIVERSITY OF AARHUS, UNIVERSITY OF ALBERTA,
     UNIVERSITY OF CALIFORNIA AT SANTA BARBARA,
     UNIVERSITY OF COPENHAGEN, UNIVERSITY OF IOWA,
     UNIVERSITY OF MEMPHIS, UNIVERSITY OF MINNESOTA,
     UNIVERSITY OF NEBRASKA, UNIVERSITY OF NEW ENGLAND,
     UNIVERSITY OF NOTRE DAME, UNIVERSITY OF PISA,
     UNIVERSITY OF SILESIA, UNIVERSITY OF TOKYO,
     UNIVERSITY OF ZURICH, WASEDA UNIVERSITY, YALE UNIVERSITY

  GAMESS SOFTWARE MANAGEMENT TEAM FOR THIS RELEASE:
     MARK S. GORDON (TEAM LEAD),
     BRETT BODE (SENIOR ADVISOR),
     GIUSEPPE BARCA,
     COLLEEN BERTONI,
     KRISTOPHER KEIPERT (ADVISOR),
     SAROM S. LEANG (DEVELOPMENT LEAD),
     BUU PHAM,
     JORGE LUIS GALVEZ VALLEJO (WEBSITE ADMINISTRATOR),
     PENG XU

 EXECUTION OF GAMESS BEGUN 10:05:10 14-JUN-2022    

            ECHO OF THE FIRST FEW INPUT CARDS -
 INPUT CARD> $CONTRL ECP=READ                                                               
 INPUT CARD>         RUNTYP=ENERGY                                                          
 INPUT CARD>         SCFTYP=RHF                                                             
 INPUT CARD>         MULT=1                                                                 
 INPUT CARD>         COORD=UNIQUE                                                           
 INPUT CARD>         UNITS=BOHR                                                             
 INPUT CARD> $END                                                                           
 INPUT CARD> $SYSTEM MWORDS=1500 $END                                                       
 INPUT CARD> $BASIS                                                                         
 INPUT CARD>        EXTFIL=.TRUE.                                                           
 INPUT CARD>        GBASIS=BFD-Dan                                                          
 INPUT CARD> $END                                                                           
 INPUT CARD> $DATA                                                                          
 INPUT CARD>Formaldehyde CC3/aug-cc-pVTZ geometry                                           
 INPUT CARD>CNV 2                                                                           
 INPUT CARD>                                                                                
 INPUT CARD>C 6.0 0.00000000  0.00000000 -1.13947666                                        
 INPUT CARD>O 8.0 0.00000000  0.00000000  1.14402883                                        
 INPUT CARD>H 1.0 0.00000000  1.76627623 -2.23398653                                        
 INPUT CARD> $END                                                                           
 INPUT CARD>                                                                                
 INPUT CARD> $ECP                                                                           
 INPUT CARD>C-ECP       GEN 2 1                                                             
 INPUT CARD>3                                                                               
 INPUT CARD>   4.00000000 1 8.35973821                                                      
 INPUT CARD>  33.43895285 3 4.48361888                                                      
 INPUT CARD> -19.17537323 2 3.93831258                                                      
 INPUT CARD>1                                                                               
 INPUT CARD>  22.55164191 2 5.02991637                                                      
 INPUT CARD>O GEN 2 1                                                                       
 INPUT CARD>3                                                                               
 INPUT CARD>   6.00000000 1 9.29793903                                                      
 INPUT CARD>  55.78763416 3 8.86492204                                                      
 INPUT CARD> -38.81978498 2 8.62925665                                                      
 INPUT CARD>1                                                                               
 INPUT CARD> 38.41914135 2 8.71924452                                                       
 INPUT CARD>H-ECP  GEN 0 0                                                                  
 INPUT CARD>3                                                                               
 INPUT CARD> 1.000000000000 1 25.000000000000                                               
 INPUT CARD>25.000000000000 3 10.821821902641                                               
 INPUT CARD>-8.228005709676 2  9.368618758833                                               
 INPUT CARD>H-ECP                                                                           
 INPUT CARD>$END                                                                            
 1500000000 WORDS OF MEMORY AVAILABLE

     $BASIS REQUESTS READING THE "BFD-DAN " BASIS SET FROM AN EXTERNAL FILE


     RUN TITLE
     ---------
 Formaldehyde CC3/aug-cc-pVTZ geometry                                           

 THE POINT GROUP OF THE MOLECULE IS CNV     
 THE ORDER OF THE PRINCIPAL AXIS IS     2

 THE EXTERNAL BASIS SET FILE BEING READ IS
     "/software/gamess_intel_oneapi_pool/BFD_Basis.data_Hw1"

 ATOM      ATOMIC                      COORDINATES (BOHR)
           CHARGE         X                   Y                   Z
 C           6.0     0.0000000000        0.0000000000       -1.1394766600
 O           8.0     0.0000000000        0.0000000000        1.1440288300
 H           1.0    -0.0000000000       -1.7662762300       -2.2339865300
 H           1.0     0.0000000000        1.7662762300       -2.2339865300

          INTERNUCLEAR DISTANCES (ANGS.)
          ------------------------------

                1 C          2 O          3 H          4 H     

   1 C       0.0000000    1.2083792 *  1.0995793 *  1.0995793 *
   2 O       1.2083792 *  0.0000000    2.0171803 *  2.0171803 *
   3 H       1.0995793 *  2.0171803 *  0.0000000    1.8693464 *
   4 H       1.0995793 *  2.0171803 *  1.8693464 *  0.0000000  

  * ... LESS THAN  3.000


     ATOMIC BASIS SET
     ----------------
 THE CONTRACTED PRIMITIVE FUNCTIONS HAVE BEEN UNNORMALIZED
 THE CONTRACTED BASIS FUNCTIONS ARE NOW NORMALIZED TO UNITY

  SHELL TYPE  PRIMITIVE        EXPONENT          CONTRACTION COEFFICIENT(S)

 C         

      1   S       1             0.0513440    0.013990987871
      1   S       2             0.1026190    0.169851852753
      1   S       3             0.2051000    0.397528655377
      1   S       4             0.4099240    0.380368670253
      1   S       5             0.8192970    0.180112843858
      1   S       6             1.6374940   -0.033511970948
      1   S       7             3.2727910   -0.121498894671
      1   S       8             6.5411870    0.015175986844
      1   S       9            13.0735940   -0.000704999389

      2   S      10             0.1278520    1.000000000000

      3   S      11             0.0469000    1.000000000000

      4   P      12             0.0292810    0.001787000047
      4   P      13             0.0585470    0.050426001336
      4   P      14             0.1170630    0.191634005079
      4   P      15             0.2340640    0.302667008021
      4   P      16             0.4680030    0.289868007682
      4   P      17             0.9357570    0.210979005591
      4   P      18             1.8710160    0.112024002969
      4   P      19             3.7410350    0.054425001442
      4   P      20             7.4800760    0.021931000581

      5   P      21             0.1491610    1.000000000000

      6   P      22             0.0404100    1.000000000000

      7   D      23             0.5611600    1.000000000000

      8   D      24             0.1510000    1.000000000000

 O         

      9   S      25             0.1253460    0.055740958894
      9   S      26             0.2680220    0.304847775189
      9   S      27             0.5730980    0.453751665379
      9   S      28             1.2254290    0.295925781768
      9   S      29             2.6202770    0.019566985570
      9   S      30             5.6028180   -0.128626905144
      9   S      31            11.9802450    0.012023991133
      9   S      32            25.6168010    0.000406999700
      9   S      33            54.7752160   -0.000075999944

     10   S      34             0.2585510    1.000000000000

     11   S      35             0.0789600    1.000000000000

     12   P      36             0.0835980    0.044957980603
     12   P      37             0.1670170    0.150174935208
     12   P      38             0.3336730    0.255998889550
     12   P      39             0.6666270    0.281878878385
     12   P      40             1.3318160    0.242834895230
     12   P      41             2.6607610    0.161133930479
     12   P      42             5.3157850    0.082307964489
     12   P      43            10.6201080    0.039898982786
     12   P      44            21.2173180    0.004678997981

     13   P      45             0.2678650    1.000000000000

     14   P      46             0.0685600    1.000000000000

     15   D      47             1.2327530    1.000000000000

     16   D      48             0.3320000    1.000000000000

 H         

     22   S      49             6.4641755    0.063649375945
     22   S      50             1.1389146    0.339233210576
     22   S      51             0.2800325    0.702654522064

     23   S      52             0.0590840    1.000000000000

     24   S      53             0.0297400    1.000000000000

     25   P      54             0.5136806    1.000000000000

     26   P      55             0.1410000    1.000000000000

 TOTAL NUMBER OF BASIS SET SHELLS             =   26
 NUMBER OF CARTESIAN GAUSSIAN BASIS FUNCTIONS =   66
 NUMBER OF ELECTRONS                          =   16
 CHARGE OF MOLECULE                           =    0
 SPIN MULTIPLICITY                            =    1
 NUMBER OF OCCUPIED ORBITALS (ALPHA)          =    8
 NUMBER OF OCCUPIED ORBITALS (BETA )          =    8
 TOTAL NUMBER OF ATOMS                        =    4
 THE NUCLEAR REPULSION ENERGY IS       31.2758075552
 NOTE THIS RUN IS USING CORE POTENTIALS, AND THE NUMBER OF ELECTRONS,
 OCCUPIED ORBITALS, AND NUCLEAR REPULSION ENERGY WILL BE ADJUSTED BELOW
 AFTER REMOVAL OF THE CORE CHARGES.

     $CONTRL OPTIONS
     ---------------
 SCFTYP=RHF          RUNTYP=ENERGY       EXETYP=RUN     
 MPLEVL=       0     CITYP =NONE         CCTYP =NONE         VBTYP =NONE    
 DFTTYP=NONE         TDDFT =NONE    
 MULT  =       1     ICHARG=       0     NZVAR =       0     COORD =UNIQUE  
 PP    =READ         RELWFN=NONE         LOCAL =NONE         NUMGRD=       F
 ISPHER=      -1     NOSYM =       0     MAXIT =      30     UNITS =BOHR    
 PLTORB=       F     MOLPLT=       F     AIMPAC=       F     FRIEND=        
 NPRINT=       7     IREST =       0     GEOM  =INPUT   
 NORMF =       0     NORMP =       0     ITOL  =      20     ICUT  =       9
 INTTYP=BEST         GRDTYP=BEST         QMTTOL= 1.0E-06

     $SYSTEM OPTIONS
     ---------------
  REPLICATED MEMORY=  1500000000 WORDS (ON EVERY NODE).
 DISTRIBUTED MEMDDI=           0 MILLION WORDS IN AGGREGATE,
 MEMDDI DISTRIBUTED OVER   1 PROCESSORS IS           0 WORDS/PROCESSOR.
 TOTAL MEMORY REQUESTED ON EACH PROCESSOR=  1500000000 WORDS.
 TIMLIM=      525600.00 MINUTES, OR     365.0 DAYS.
 PARALL= F  BALTYP=  DLB     KDIAG=    0  COREFL= F
 MXSEQ2=     300 MXSEQ3=     150  mem10=         0  mem22=         0

          --------------
          ECP POTENTIALS
          --------------

 PARAMETERS FOR "C-ECP   " ON ATOM    1 WITH ZCORE   2 AND LMAX  1 ARE
 FOR L= 1      COEFF    N           ZETA
    1        4.00000    1        8.35974
    2       33.43895    3        4.48362
    3      -19.17537    2        3.93831
 FOR L= 0      COEFF    N           ZETA
    1       22.55164    2        5.02992

 PARAMETERS FOR "O       " ON ATOM    2 WITH ZCORE   2 AND LMAX  1 ARE
 FOR L= 1      COEFF    N           ZETA
    1        6.00000    1        9.29794
    2       55.78763    3        8.86492
    3      -38.81978    2        8.62926
 FOR L= 0      COEFF    N           ZETA
    1       38.41914    2        8.71924

 PARAMETERS FOR "H-ECP   " ON ATOM    3 WITH ZCORE   0 AND LMAX  0 ARE
 FOR L= 0      COEFF    N           ZETA
    1        1.00000    1       25.00000
    2       25.00000    3       10.82182
    3       -8.22801    2        9.36862

 PARAMETERS FOR "H-ECP   " ON ATOM    4 ARE THE SAME AS ATOM   3

 THE ECP RUN REMOVES    4 CORE ELECTRONS, AND THE SAME NUMBER OF PROTONS.
 NUMBER OF ELECTRONS KEPT IN THE CALCULATION IS =   12
 NUMBER OF OCCUPIED ORBITALS (ALPHA) KEPT IS    =    6
 NUMBER OF OCCUPIED ORBITALS (BETA ) KEPT IS    =    6
 THE ADJUSTED NUCLEAR REPULSION ENERGY=       17.7912935206
          ECP ANGULAR INTS.........     0.00 SECONDS

          ----------------
          PROPERTIES INPUT
          ----------------

     MOMENTS            FIELD           POTENTIAL          DENSITY
 IEMOM =       1   IEFLD =       0   IEPOT =       0   IEDEN =       0
 WHERE =COMASS     WHERE =NUCLEI     WHERE =NUCLEI     WHERE =NUCLEI  
 OUTPUT=BOTH       OUTPUT=BOTH       OUTPUT=BOTH       OUTPUT=BOTH    
 IEMINT=       0   IEFINT=       0                     IEDINT=       0
                                                       MORB  =       0
          EXTRAPOLATION IN EFFECT
          SOSCF IN EFFECT
 ORBITAL PRINTING OPTION: NPREO=     1    66     2     1

     -------------------------------
     INTEGRAL TRANSFORMATION OPTIONS
     -------------------------------
     NWORD  =            0
     CUTOFF = 1.0E-09     MPTRAN =       0
     DIRTRF =       F     AOINTS =DUP     

          ----------------------
          INTEGRAL INPUT OPTIONS
          ----------------------
 NOPK  =       1 NORDER=       0 SCHWRZ=       F

     ------------------------------------------
     THE POINT GROUP IS CNV, NAXIS= 2, ORDER= 4
     ------------------------------------------

     DIMENSIONS OF THE SYMMETRY SUBSPACES ARE
 A1  =   31     A2  =    6     B1  =   12     B2  =   17

 ..... DONE SETTING UP THE RUN .....
 STEP CPU TIME =     0.02 TOTAL CPU TIME =          0.0 (      0.0 MIN)
 TOTAL WALL CLOCK TIME=          0.0 SECONDS, CPU UTILIZATION IS    80.51%

          ********************
          1 ELECTRON INTEGRALS
          ********************
 TIME TO DO ORDINARY INTEGRALS=      0.00
 TIME TO DO      ECP INTEGRALS=      0.01
 ...... END OF ONE-ELECTRON INTEGRALS ......
 STEP CPU TIME =     0.01 TOTAL CPU TIME =          0.0 (      0.0 MIN)
 TOTAL WALL CLOCK TIME=          0.0 SECONDS, CPU UTILIZATION IS    86.77%

          -------------
          GUESS OPTIONS
          -------------
          GUESS =HUCKEL            NORB  =       0          NORDER=       0
          MIX   =       F          PRTMO =       F          PUNMO =       F
          TOLZ  = 1.0E-08          TOLE  = 1.0E-05
          SYMDEN=       F          PURIFY=       F

 INITIAL GUESS ORBITALS GENERATED BY HUCKEL   ROUTINE.
 HUCKEL GUESS REQUIRES     35316 WORDS.

 SYMMETRIES FOR INITIAL GUESS ORBITALS FOLLOW.   BOTH SET(S).
     6 ORBITALS ARE OCCUPIED (    0 CORE ORBITALS).
     1=A1       2=A1       3=B2       4=B1       5=A1       6=B2       7=B1  
     8=B2       9=A1      10=A1      11=A1      12=A1      13=A1      14=A1  
    15=A1      16=A1  
 ...... END OF INITIAL ORBITAL SELECTION ......
 STEP CPU TIME =     0.01 TOTAL CPU TIME =          0.0 (      0.0 MIN)
 TOTAL WALL CLOCK TIME=          0.0 SECONDS, CPU UTILIZATION IS    88.51%

                    ----------------------
                    AO INTEGRAL TECHNOLOGY
                    ----------------------
     S,P,L SHELL ROTATED AXIS INTEGRALS, REPROGRAMMED BY
        KAZUYA ISHIMURA (IMS) AND JOSE SIERRA (SYNSTAR).
     S,P,D,L SHELL ROTATED AXIS INTEGRALS PROGRAMMED BY
        KAZUYA ISHIMURA (INSTITUTE FOR MOLECULAR SCIENCE).
     S,P,D,F,G SHELL TO TOTAL QUARTET ANGULAR MOMENTUM SUM 5,
        ERIC PROGRAM BY GRAHAM FLETCHER (ELORET AND NASA ADVANCED
        SUPERCOMPUTING DIVISION, AMES RESEARCH CENTER).
     S,P,D,F,G,L SHELL GENERAL RYS QUADRATURE PROGRAMMED BY
        MICHEL DUPUIS (PACIFIC NORTHWEST NATIONAL LABORATORY).

          --------------------
          2 ELECTRON INTEGRALS
          --------------------

 THE -PK- OPTION IS OFF, THE INTEGRALS ARE NOT IN SUPERMATRIX FORM.
 STORING   15000 INTEGRALS/RECORD ON DISK, USING 12 BYTES/INTEGRAL.
 TWO ELECTRON INTEGRAL EVALUATION REQUIRES   90747 WORDS OF MEMORY.
 II,JST,KST,LST =  1  1  1  1 NREC =         1 INTLOC =    1
 II,JST,KST,LST =  2  1  1  1 NREC =         1 INTLOC =    2
 II,JST,KST,LST =  3  1  1  1 NREC =         1 INTLOC =    7
 II,JST,KST,LST =  4  1  1  1 NREC =         1 INTLOC =   22
 II,JST,KST,LST =  5  1  1  1 NREC =         1 INTLOC =   67
 II,JST,KST,LST =  6  1  1  1 NREC =         1 INTLOC =  214
 II,JST,KST,LST =  7  1  1  1 NREC =         1 INTLOC =  571
 II,JST,KST,LST =  8  1  1  1 NREC =         1 INTLOC = 2257
 II,JST,KST,LST =  9  1  1  1 NREC =         1 INTLOC = 6628
 II,JST,KST,LST = 10  1  1  1 NREC =         1 INTLOC = 8993
 II,JST,KST,LST = 11  1  1  1 NREC =         1 INTLOC =11719
 II,JST,KST,LST = 12  1  1  1 NREC =         1 INTLOC =14848
 II,JST,KST,LST = 13  1  1  1 NREC =         2 INTLOC = 9773
 II,JST,KST,LST = 14  1  1  1 NREC =         3 INTLOC = 7965
 II,JST,KST,LST = 15  1  1  1 NREC =         4 INTLOC =10030
 II,JST,KST,LST = 16  1  1  1 NREC =         7 INTLOC =13237
 II,JST,KST,LST = 17  1  1  1 NREC =        12 INTLOC = 9829
 II,JST,KST,LST = 18  1  1  1 NREC =        12 INTLOC = 9829
 II,JST,KST,LST = 19  1  1  1 NREC =        12 INTLOC = 9829
 II,JST,KST,LST = 20  1  1  1 NREC =        12 INTLOC = 9829
 II,JST,KST,LST = 21  1  1  1 NREC =        12 INTLOC = 9829
 II,JST,KST,LST = 22  1  1  1 NREC =        12 INTLOC = 9829
 II,JST,KST,LST = 23  1  1  1 NREC =        14 INTLOC =12953
 II,JST,KST,LST = 24  1  1  1 NREC =        17 INTLOC = 5680
 II,JST,KST,LST = 25  1  1  1 NREC =        20 INTLOC = 3460
 II,JST,KST,LST = 26  1  1  1 NREC =        30 INTLOC = 3675
 TOTAL NUMBER OF NONZERO TWO-ELECTRON INTEGRALS =              638560
         43 INTEGRAL RECORDS WERE STORED ON DISK FILE  8.
  ...... END OF TWO-ELECTRON INTEGRALS .....
 STEP CPU TIME =     0.19 TOTAL CPU TIME =          0.2 (      0.0 MIN)
 TOTAL WALL CLOCK TIME=          0.2 SECONDS, CPU UTILIZATION IS    97.84%

          --------------------------
                 RHF SCF CALCULATION
          --------------------------

     NUCLEAR ENERGY =        17.7912935206
     MAXIT =   30     NPUNCH=    2
     EXTRAP=T  DAMP=F  SHIFT=F  RSTRCT=F  DIIS=F  DEM=F  SOSCF=T
     DENSITY MATRIX CONV=  1.00E-05
     SOSCF WILL OPTIMIZE     360 ORBITAL ROTATIONS, SOGTOL=   0.250
     MEMORY REQUIRED FOR RHF ITERS=     62856 WORDS.

 ITER EX DEM     TOTAL ENERGY        E CHANGE  DENSITY CHANGE     ORB. GRAD
   1  0  0      -22.1378846978   -22.1378846978   0.813015956   0.000000000
          ---------------START SECOND ORDER SCF---------------
   2  1  0      -22.4179540716    -0.2800693739   0.288893975   0.051109426
   3  2  0      -22.4364098074    -0.0184557357   0.100466915   0.036955926
   4  3  0      -22.4474620295    -0.0110522221   0.031969877   0.005389413
   5  4  0      -22.4478388493    -0.0003768197   0.009970633   0.001993554
   6  5  0      -22.4479087627    -0.0000699134   0.006204311   0.000880728
   7  6  0      -22.4479208581    -0.0000120954   0.001748160   0.000214139
   8  7  0      -22.4479219485    -0.0000010904   0.000328965   0.000065394
   9  8  0      -22.4479220488    -0.0000001003   0.000056844   0.000009814
  10  9  0      -22.4479220516    -0.0000000028   0.000017341   0.000002301
  11 10  0      -22.4479220517    -0.0000000002   0.000003428   0.000000454
  12 11  0      -22.4479220517    -0.0000000000   0.000000615   0.000000124

          -----------------
          DENSITY CONVERGED
          -----------------
     TIME TO FORM FOCK OPERATORS=       0.1 SECONDS (       0.0 SEC/ITER)
     TIME TO SOLVE SCF EQUATIONS=       0.0 SECONDS (       0.0 SEC/ITER)

 FINAL RHF ENERGY IS      -22.4479220517 AFTER  12 ITERATIONS

          ------------
          EIGENVECTORS
          ------------

                      1          2          3          4          5
                   -1.4041    -0.8729    -0.6955    -0.6526    -0.5362
                     A1         A1         B2         A1         B1  
    1  C  1  S    0.451438   0.704622   0.000000  -0.108428   0.000000
    2  C  1  S   -0.169134  -0.347379   0.000000  -0.105882   0.000000
    3  C  1  S   -0.006742  -0.092388   0.000000  -0.102312   0.000000
    4  C  1  X    0.000000   0.000000   0.000000   0.000000   0.491240
    5  C  1  Y    0.000000   0.000000   0.608732   0.000000   0.000000
    6  C  1  Z    0.283123  -0.268559   0.000000  -0.581961   0.000000
    7  C  1  X    0.000000   0.000000   0.000000   0.000000  -0.048677
    8  C  1  Y    0.000000   0.000000  -0.176993   0.000000   0.000000
    9  C  1  Z   -0.062641   0.066596   0.000000   0.102932   0.000000
   10  C  1  X    0.000000   0.000000   0.000000   0.000000  -0.006931
   11  C  1  Y    0.000000   0.000000  -0.016190   0.000000   0.000000
   12  C  1  Z   -0.004601   0.017030   0.000000   0.021786   0.000000
   13  C  1 XX   -0.012670  -0.003789   0.000000   0.013719   0.000000
   14  C  1 YY   -0.017936   0.023431   0.000000   0.033903   0.000000
   15  C  1 ZZ    0.040743  -0.005721   0.000000  -0.027852   0.000000
   16  C  1 XY    0.000000   0.000000   0.000000   0.000000   0.000000
   17  C  1 XZ    0.000000   0.000000   0.000000   0.000000   0.044434
   18  C  1 YZ    0.000000   0.000000  -0.007383   0.000000   0.000000
   19  C  1 XX    0.018656   0.065854   0.000000   0.042050   0.000000
   20  C  1 YY    0.007742   0.025225   0.000000   0.028877   0.000000
   21  C  1 ZZ    0.016072   0.056616   0.000000   0.037249   0.000000
   22  C  1 XY    0.000000   0.000000   0.000000   0.000000   0.000000
   23  C  1 XZ    0.000000   0.000000   0.000000   0.000000   0.003705
   24  C  1 YZ    0.000000   0.000000   0.010770   0.000000   0.000000
   25  O  2  S    0.801988  -0.382728   0.000000   0.308860   0.000000
   26  O  2  S   -0.140507  -0.013642   0.000000   0.195776   0.000000
   27  O  2  S   -0.049792  -0.015287   0.000000   0.118679   0.000000
   28  O  2  X    0.000000   0.000000   0.000000   0.000000   0.731953
   29  O  2  Y    0.000000   0.000000   0.501956   0.000000   0.000000
   30  O  2  Z   -0.212692  -0.217610   0.000000   0.752665   0.000000
   31  O  2  X    0.000000   0.000000   0.000000   0.000000   0.013935
   32  O  2  Y    0.000000   0.000000  -0.023030   0.000000   0.000000
   33  O  2  Z    0.099307  -0.008475   0.000000  -0.139443   0.000000
   34  O  2  X    0.000000   0.000000   0.000000   0.000000  -0.003853
   35  O  2  Y    0.000000   0.000000  -0.023283   0.000000   0.000000
   36  O  2  Z    0.023818   0.017955   0.000000  -0.035767   0.000000
   37  O  2 XX   -0.002205  -0.001005   0.000000   0.008505   0.000000
   38  O  2 YY   -0.002127  -0.002887   0.000000   0.010069   0.000000
   39  O  2 ZZ    0.026989   0.008635   0.000000  -0.030054   0.000000
   40  O  2 XY    0.000000   0.000000   0.000000   0.000000   0.000000
   41  O  2 XZ    0.000000   0.000000   0.000000   0.000000  -0.025857
   42  O  2 YZ    0.000000   0.000000  -0.019294   0.000000   0.000000
   43  O  2 XX    0.015037  -0.003347   0.000000  -0.002161   0.000000
   44  O  2 YY    0.016438  -0.005274   0.000000  -0.000388   0.000000
   45  O  2 ZZ   -0.008146   0.014133   0.000000   0.016992   0.000000
   46  O  2 XY    0.000000   0.000000   0.000000   0.000000   0.000000
   47  O  2 XZ    0.000000   0.000000   0.000000   0.000000  -0.026489
   48  O  2 YZ    0.000000   0.000000  -0.009292   0.000000   0.000000
   49  H  3  S    0.045701   0.291770  -0.294978   0.156700   0.000000
   50  H  3  S    0.014088   0.050589  -0.053371   0.028638   0.000000
   51  H  3  S   -0.002401   0.002798   0.020447   0.011641   0.000000
   52  H  3  X    0.000000   0.000000   0.000000   0.000000   0.011178
   53  H  3  Y    0.005965   0.028669  -0.013444   0.012452   0.000000
   54  H  3  Z    0.007121   0.012341  -0.009697  -0.001844   0.000000
   55  H  3  X    0.000000   0.000000   0.000000   0.000000  -0.003309
   56  H  3  Y    0.003356   0.003806  -0.002272   0.001314   0.000000
   57  H  3  Z   -0.002742   0.013605  -0.001564   0.010173   0.000000
   58  H  4  S    0.045701   0.291770   0.294978   0.156700   0.000000
   59  H  4  S    0.014088   0.050589   0.053371   0.028638   0.000000
   60  H  4  S   -0.002401   0.002798  -0.020447   0.011641   0.000000
   61  H  4  X    0.000000   0.000000   0.000000   0.000000   0.011178
   62  H  4  Y   -0.005965  -0.028669  -0.013444  -0.012452   0.000000
   63  H  4  Z    0.007121   0.012341   0.009697  -0.001844   0.000000
   64  H  4  X    0.000000   0.000000   0.000000   0.000000  -0.003309
   65  H  4  Y   -0.003356  -0.003806  -0.002272  -0.001314   0.000000
   66  H  4  Z   -0.002742   0.013605   0.001564   0.010173   0.000000

                      6          7          8          9         10
                   -0.4435     0.0325     0.0511     0.0690     0.0886
                     B2         A1         B2         B1         A1  
    1  C  1  S    0.000000   0.091445   0.000000   0.000000  -0.061151
    2  C  1  S    0.000000  -0.090538   0.000000   0.000000  -0.554992
    3  C  1  S    0.000000   2.265309   0.000000   0.000000   0.523179
    4  C  1  X    0.000000   0.000000   0.000000   0.258791   0.000000
    5  C  1  Y   -0.294913   0.000000   0.118102   0.000000   0.000000
    6  C  1  Z    0.000000  -0.080155   0.000000   0.000000  -0.012988
    7  C  1  X    0.000000   0.000000   0.000000   0.098134   0.000000
    8  C  1  Y    0.015131   0.000000  -0.091766   0.000000   0.000000
    9  C  1  Z    0.000000   0.228865   0.000000   0.000000  -0.476667
   10  C  1  X    0.000000   0.000000   0.000000   1.230531   0.000000
   11  C  1  Y    0.007576   0.000000   1.858206   0.000000   0.000000
   12  C  1  Z    0.000000   0.086560   0.000000   0.000000  -2.182361
   13  C  1 XX    0.000000  -0.005092   0.000000   0.000000   0.002854
   14  C  1 YY    0.000000   0.011801   0.000000   0.000000  -0.001597
   15  C  1 ZZ    0.000000   0.011493   0.000000   0.000000  -0.005446
   16  C  1 XY    0.000000   0.000000   0.000000   0.000000   0.000000
   17  C  1 XZ    0.000000   0.000000   0.000000  -0.027032   0.000000
   18  C  1 YZ    0.079631   0.000000  -0.006024   0.000000   0.000000
   19  C  1 XX    0.000000  -0.156653   0.000000   0.000000  -0.028289
   20  C  1 YY    0.000000  -0.171217   0.000000   0.000000  -0.040670
   21  C  1 ZZ    0.000000  -0.066805   0.000000   0.000000  -0.079931
   22  C  1 XY    0.000000   0.000000   0.000000   0.000000   0.000000
   23  C  1 XZ    0.000000   0.000000   0.000000  -0.025695   0.000000
   24  C  1 YZ    0.038156   0.000000   0.027985   0.000000   0.000000
   25  O  2  S    0.000000   0.017205   0.000000   0.000000   0.079732
   26  O  2  S    0.000000  -0.105582   0.000000   0.000000   0.185766
   27  O  2  S    0.000000  -0.615192   0.000000   0.000000   2.455780
   28  O  2  X    0.000000   0.000000   0.000000  -0.345462   0.000000
   29  O  2  Y    0.814062   0.000000  -0.012110   0.000000   0.000000
   30  O  2  Z    0.000000   0.036183   0.000000   0.000000   0.015996
   31  O  2  X    0.000000   0.000000   0.000000  -0.024864   0.000000
   32  O  2  Y    0.020317   0.000000   0.009953   0.000000   0.000000
   33  O  2  Z    0.000000   0.102333   0.000000   0.000000  -0.157855
   34  O  2  X    0.000000   0.000000   0.000000  -0.586121   0.000000
   35  O  2  Y    0.026873   0.000000  -0.308928   0.000000   0.000000
   36  O  2  Z    0.000000   0.223939   0.000000   0.000000  -0.233823
   37  O  2 XX    0.000000  -0.000844   0.000000   0.000000  -0.000208
   38  O  2 YY    0.000000  -0.000342   0.000000   0.000000  -0.000902
   39  O  2 ZZ    0.000000   0.000713   0.000000   0.000000   0.005318
   40  O  2 XY    0.000000   0.000000   0.000000   0.000000   0.000000
   41  O  2 XZ    0.000000   0.000000   0.000000  -0.002415   0.000000
   42  O  2 YZ   -0.008293   0.000000  -0.003154   0.000000   0.000000
   43  O  2 XX    0.000000   0.005212   0.000000   0.000000  -0.038943
   44  O  2 YY    0.000000   0.000679   0.000000   0.000000  -0.037225
   45  O  2 ZZ    0.000000  -0.037049   0.000000   0.000000  -0.026894
   46  O  2 XY    0.000000   0.000000   0.000000   0.000000   0.000000
   47  O  2 XZ    0.000000   0.000000   0.000000   0.009323   0.000000
   48  O  2 YZ   -0.004264   0.000000  -0.000914   0.000000   0.000000
   49  H  3  S    0.281999   0.013960  -0.038086   0.000000  -0.006682
   50  H  3  S    0.101008   0.549064  -0.294154   0.000000  -0.944317
   51  H  3  S   -0.027575  -1.573596   4.412429   0.000000  -0.353344
   52  H  3  X    0.000000   0.000000   0.000000   0.024480   0.000000
   53  H  3  Y    0.000870  -0.007373   0.000874   0.000000   0.010221
   54  H  3  Z    0.008266  -0.009270  -0.007008   0.000000  -0.011051
   55  H  3  X    0.000000   0.000000   0.000000  -0.035408   0.000000
   56  H  3  Y   -0.002981   0.058834  -0.089365   0.000000  -0.090130
   57  H  3  Z   -0.005750   0.067229  -0.002357   0.000000   0.053786
   58  H  4  S   -0.281999   0.013960   0.038086   0.000000  -0.006682
   59  H  4  S   -0.101008   0.549064   0.294154   0.000000  -0.944317
   60  H  4  S    0.027575  -1.573596  -4.412429   0.000000  -0.353344
   61  H  4  X    0.000000   0.000000   0.000000   0.024480   0.000000
   62  H  4  Y    0.000870   0.007373   0.000874   0.000000  -0.010221
   63  H  4  Z   -0.008266  -0.009270   0.007008   0.000000  -0.011051
   64  H  4  X    0.000000   0.000000   0.000000  -0.035408   0.000000
   65  H  4  Y   -0.002981  -0.058834  -0.089365   0.000000   0.090130
   66  H  4  Z    0.005750   0.067229   0.002357   0.000000   0.053786

                     11         12         13         14         15
                    0.1314     0.1447     0.1482     0.1713     0.2069
                     B2         A1         B1         A1         B2  
    1  C  1  S    0.000000  -0.018468   0.000000  -0.407443   0.000000
    2  C  1  S    0.000000   2.202388   0.000000  -0.928173   0.000000
    3  C  1  S    0.000000  15.656603   0.000000   1.631215   0.000000
    4  C  1  X    0.000000   0.000000  -0.601798   0.000000   0.000000
    5  C  1  Y   -0.072946   0.000000   0.000000   0.000000   0.295035
    6  C  1  Z    0.000000   0.026604   0.000000   0.233576   0.000000
    7  C  1  X    0.000000   0.000000  -0.215190   0.000000   0.000000
    8  C  1  Y    0.608940   0.000000   0.000000   0.000000   0.752290
    9  C  1  Z    0.000000   0.457301   0.000000   0.727461   0.000000
   10  C  1  X    0.000000   0.000000   0.886823   0.000000   0.000000
   11  C  1  Y    7.741418   0.000000   0.000000   0.000000  -0.313119
   12  C  1  Z    0.000000  -2.228408   0.000000   0.395437   0.000000
   13  C  1 XX    0.000000   0.028328   0.000000  -0.018919   0.000000
   14  C  1 YY    0.000000  -0.024725   0.000000   0.043477   0.000000
   15  C  1 ZZ    0.000000   0.002006   0.000000   0.045663   0.000000
   16  C  1 XY    0.000000   0.000000   0.000000   0.000000   0.000000
   17  C  1 XZ    0.000000   0.000000   0.022301   0.000000   0.000000
   18  C  1 YZ    0.004489   0.000000   0.000000   0.000000   0.006310
   19  C  1 XX    0.000000  -0.140969   0.000000  -0.464265   0.000000
   20  C  1 YY    0.000000  -0.187015   0.000000  -0.510552   0.000000
   21  C  1 ZZ    0.000000   0.476412   0.000000  -0.276968   0.000000
   22  C  1 XY    0.000000   0.000000   0.000000   0.000000   0.000000
   23  C  1 XZ    0.000000   0.000000  -0.001821   0.000000   0.000000
   24  C  1 YZ    0.204302   0.000000   0.000000   0.000000  -0.021440
   25  O  2  S    0.000000  -0.058706   0.000000  -0.006087   0.000000
   26  O  2  S    0.000000  -0.463145   0.000000  -0.342595   0.000000
   27  O  2  S    0.000000  -3.904546   0.000000  -1.412405   0.000000
   28  O  2  X    0.000000   0.000000   0.348386   0.000000   0.000000
   29  O  2  Y   -0.098042   0.000000   0.000000   0.000000  -0.087857
   30  O  2  Z    0.000000  -0.021848   0.000000  -0.080048   0.000000
   31  O  2  X    0.000000   0.000000   0.116317   0.000000   0.000000
   32  O  2  Y   -0.069799   0.000000   0.000000   0.000000  -0.111288
   33  O  2  Z    0.000000   0.207534   0.000000   0.307963   0.000000
   34  O  2  X    0.000000   0.000000   0.065670   0.000000   0.000000
   35  O  2  Y   -1.336642   0.000000   0.000000   0.000000   0.481878
   36  O  2  Z    0.000000   1.262259   0.000000   0.508088   0.000000
   37  O  2 XX    0.000000   0.005821   0.000000  -0.002282   0.000000
   38  O  2 YY    0.000000  -0.002351   0.000000   0.001930   0.000000
   39  O  2 ZZ    0.000000   0.000912   0.000000   0.002413   0.000000
   40  O  2 XY    0.000000   0.000000   0.000000   0.000000   0.000000
   41  O  2 XZ    0.000000   0.000000   0.012429   0.000000   0.000000
   42  O  2 YZ   -0.001829   0.000000   0.000000   0.000000  -0.004729
   43  O  2 XX    0.000000  -0.019622   0.000000   0.023590   0.000000
   44  O  2 YY    0.000000  -0.007387   0.000000   0.006842   0.000000
   45  O  2 ZZ    0.000000  -0.036069   0.000000  -0.134283   0.000000
   46  O  2 XY    0.000000   0.000000   0.000000   0.000000   0.000000
   47  O  2 XZ    0.000000   0.000000  -0.008135   0.000000   0.000000
   48  O  2 YZ    0.056058   0.000000   0.000000   0.000000   0.012223
   49  H  3  S    0.021950  -0.071682   0.000000   0.023367  -0.003320
   50  H  3  S    5.070383  -6.006161   0.000000   3.097945   4.418102
   51  H  3  S    5.316568  -1.405413   0.000000  -1.881930  -3.480362
   52  H  3  X    0.000000   0.000000   0.007227   0.000000   0.000000
   53  H  3  Y   -0.007289   0.024126   0.000000  -0.074797  -0.041663
   54  H  3  Z   -0.008534   0.005655   0.000000  -0.054540  -0.008551
   55  H  3  X    0.000000   0.000000  -0.249244   0.000000   0.000000
   56  H  3  Y    0.249370  -0.362401   0.000000   0.157530   0.449748
   57  H  3  Z    0.326718   0.019430   0.000000   0.194518   0.160177
   58  H  4  S   -0.021950  -0.071682   0.000000   0.023367   0.003320
   59  H  4  S   -5.070383  -6.006161   0.000000   3.097945  -4.418102
   60  H  4  S   -5.316568  -1.405413   0.000000  -1.881930   3.480362
   61  H  4  X    0.000000   0.000000   0.007227   0.000000   0.000000
   62  H  4  Y   -0.007289  -0.024126   0.000000   0.074797  -0.041663
   63  H  4  Z    0.008534   0.005655   0.000000  -0.054540   0.008551
   64  H  4  X    0.000000   0.000000  -0.249244   0.000000   0.000000
   65  H  4  Y    0.249370   0.362401   0.000000  -0.157530   0.449748
   66  H  4  Z   -0.326718   0.019430   0.000000   0.194518  -0.160177

                     16         17         18         19         20
                    0.2158     0.2664     0.3206     0.3291     0.3397
                     A1         B1         A1         B2         A2  
    1  C  1  S   -0.197999   0.000000   0.067691   0.000000   0.000000
    2  C  1  S   -2.577472   0.000000  -0.427162   0.000000   0.000000
    3  C  1  S   -0.413445   0.000000  -0.431195   0.000000   0.000000
    4  C  1  X    0.000000   0.092262   0.000000   0.000000   0.000000
    5  C  1  Y    0.000000   0.000000   0.000000   0.214182   0.000000
    6  C  1  Z   -0.062147   0.000000   0.082437   0.000000   0.000000
    7  C  1  X    0.000000  -0.251105   0.000000   0.000000   0.000000
    8  C  1  Y    0.000000   0.000000   0.000000   0.879525   0.000000
    9  C  1  Z   -1.280208   0.000000  -1.191046   0.000000   0.000000
   10  C  1  X    0.000000  -1.207328   0.000000   0.000000   0.000000
   11  C  1  Y    0.000000   0.000000   0.000000   6.924660   0.000000
   12  C  1  Z    0.143221   0.000000  -2.073819   0.000000   0.000000
   13  C  1 XX    0.040331   0.000000   0.020139   0.000000   0.000000
   14  C  1 YY    0.042245   0.000000   0.070074   0.000000   0.000000
   15  C  1 ZZ   -0.025724   0.000000  -0.111608   0.000000   0.000000
   16  C  1 XY    0.000000   0.000000   0.000000   0.000000  -0.053726
   17  C  1 XZ    0.000000  -0.016225   0.000000   0.000000   0.000000
   18  C  1 YZ    0.000000   0.000000   0.000000   0.018955   0.000000
   19  C  1 XX   -0.112205   0.000000   0.179865   0.000000   0.000000
   20  C  1 YY   -0.123318   0.000000  -0.194531   0.000000   0.000000
   21  C  1 ZZ   -0.600525   0.000000   0.082195   0.000000   0.000000
   22  C  1 XY    0.000000   0.000000   0.000000   0.000000   0.210118
   23  C  1 XZ    0.000000  -0.366526   0.000000   0.000000   0.000000
   24  C  1 YZ    0.000000   0.000000   0.000000   0.614526   0.000000
   25  O  2  S    0.063913   0.000000  -0.387563   0.000000   0.000000
   26  O  2  S    0.692384   0.000000  -0.026681   0.000000   0.000000
   27  O  2  S    3.378900   0.000000   3.820892   0.000000   0.000000
   28  O  2  X    0.000000  -0.331793   0.000000   0.000000   0.000000
   29  O  2  Y    0.000000   0.000000   0.000000   0.173616   0.000000
   30  O  2  Z    0.137182   0.000000   0.081956   0.000000   0.000000
   31  O  2  X    0.000000  -0.122515   0.000000   0.000000   0.000000
   32  O  2  Y    0.000000   0.000000   0.000000  -0.068568   0.000000
   33  O  2  Z   -0.298027   0.000000  -0.384703   0.000000   0.000000
   34  O  2  X    0.000000   2.125824   0.000000   0.000000   0.000000
   35  O  2  Y    0.000000   0.000000   0.000000  -3.598964   0.000000
   36  O  2  Z   -2.806931   0.000000   0.363683   0.000000   0.000000
   37  O  2 XX    0.002177   0.000000   0.007246   0.000000   0.000000
   38  O  2 YY    0.000753   0.000000   0.009739   0.000000   0.000000
   39  O  2 ZZ   -0.017283   0.000000   0.021123   0.000000   0.000000
   40  O  2 XY    0.000000   0.000000   0.000000   0.000000  -0.001472
   41  O  2 XZ    0.000000   0.023129   0.000000   0.000000   0.000000
   42  O  2 YZ    0.000000   0.000000   0.000000  -0.033435   0.000000
   43  O  2 XX    0.078583   0.000000  -0.101447   0.000000   0.000000
   44  O  2 YY    0.082389   0.000000  -0.082753   0.000000   0.000000
   45  O  2 ZZ    0.153319   0.000000  -0.054655   0.000000   0.000000
   46  O  2 XY    0.000000   0.000000   0.000000   0.000000  -0.049138
   47  O  2 XZ    0.000000  -0.103208   0.000000   0.000000   0.000000
   48  O  2 YZ    0.000000   0.000000   0.000000   0.158690   0.000000
   49  H  3  S   -0.009747   0.000000   0.029851   0.028855   0.000000
   50  H  3  S   -0.957798   0.000000  -0.873058   3.368609   0.000000
   51  H  3  S    0.351564   0.000000  -0.187246   4.149850   0.000000
   52  H  3  X    0.000000   0.005311   0.000000   0.000000  -0.058775
   53  H  3  Y   -0.011646   0.000000   0.011925  -0.002286   0.000000
   54  H  3  Z    0.016716   0.000000  -0.008126   0.039560   0.000000
   55  H  3  X    0.000000  -0.045129   0.000000   0.000000   1.113065
   56  H  3  Y   -0.087677   0.000000  -0.576401  -0.027145   0.000000
   57  H  3  Z   -0.037703   0.000000   0.667202   0.099582   0.000000
   58  H  4  S   -0.009747   0.000000   0.029851  -0.028855   0.000000
   59  H  4  S   -0.957798   0.000000  -0.873058  -3.368609   0.000000
   60  H  4  S    0.351564   0.000000  -0.187246  -4.149850   0.000000
   61  H  4  X    0.000000   0.005311   0.000000   0.000000   0.058775
   62  H  4  Y    0.011646   0.000000  -0.011925  -0.002286   0.000000
   63  H  4  Z    0.016716   0.000000  -0.008126  -0.039560   0.000000
   64  H  4  X    0.000000  -0.045129   0.000000   0.000000  -1.113065
   65  H  4  Y    0.087677   0.000000   0.576401  -0.027145   0.000000
   66  H  4  Z   -0.037703   0.000000   0.667202  -0.099582   0.000000

                     21         22         23         24         25
                    0.3711     0.4182     0.4437     0.4485     0.5014
                     A1         B2         A1         B1         B2  
    1  C  1  S   -0.247979   0.000000  -0.324964   0.000000   0.000000
    2  C  1  S    5.531865   0.000000  -2.090022   0.000000   0.000000
    3  C  1  S   11.121365   0.000000  -4.422994   0.000000   0.000000
    4  C  1  X    0.000000   0.000000   0.000000  -0.488674   0.000000
    5  C  1  Y    0.000000  -0.321337   0.000000   0.000000  -0.430241
    6  C  1  Z    0.188160   0.000000   0.112787   0.000000   0.000000
    7  C  1  X    0.000000   0.000000   0.000000  -1.516880   0.000000
    8  C  1  Y    0.000000   1.516004   0.000000   0.000000   0.308846
    9  C  1  Z    0.205932   0.000000  -0.769149   0.000000   0.000000
   10  C  1  X    0.000000   0.000000   0.000000  -0.855118   0.000000
   11  C  1  Y    0.000000   3.812159   0.000000   0.000000   0.062399
   12  C  1  Z   -1.317689   0.000000  -0.042221   0.000000   0.000000
   13  C  1 XX   -0.036360   0.000000   0.021760   0.000000   0.000000
   14  C  1 YY    0.018776   0.000000  -0.046904   0.000000   0.000000
   15  C  1 ZZ   -0.006332   0.000000   0.005688   0.000000   0.000000
   16  C  1 XY    0.000000   0.000000   0.000000   0.000000   0.000000
   17  C  1 XZ    0.000000   0.000000   0.000000  -0.035317   0.000000
   18  C  1 YZ    0.000000  -0.022157   0.000000   0.000000   0.036093
   19  C  1 XX   -0.201807   0.000000  -0.167787   0.000000   0.000000
   20  C  1 YY   -0.114187   0.000000   1.194284   0.000000   0.000000
   21  C  1 ZZ    1.230713   0.000000  -1.164179   0.000000   0.000000
   22  C  1 XY    0.000000   0.000000   0.000000   0.000000   0.000000
   23  C  1 XZ    0.000000   0.000000   0.000000   0.243426   0.000000
   24  C  1 YZ    0.000000   0.510465   0.000000   0.000000  -0.108479
   25  O  2  S    0.190465   0.000000  -0.224991   0.000000   0.000000
   26  O  2  S   -0.577698   0.000000   0.482021   0.000000   0.000000
   27  O  2  S   -5.093493   0.000000   7.550868   0.000000   0.000000
   28  O  2  X    0.000000   0.000000   0.000000   0.175382   0.000000
   29  O  2  Y    0.000000   0.289677   0.000000   0.000000   0.113609
   30  O  2  Z   -0.051377   0.000000  -0.193525   0.000000   0.000000
   31  O  2  X    0.000000   0.000000   0.000000   0.164583   0.000000
   32  O  2  Y    0.000000  -0.110040   0.000000   0.000000   0.127345
   33  O  2  Z    0.287366   0.000000  -0.564645   0.000000   0.000000
   34  O  2  X    0.000000   0.000000   0.000000   0.414303   0.000000
   35  O  2  Y    0.000000  -0.797030   0.000000   0.000000  -0.177244
   36  O  2  Z    1.380428   0.000000  -2.660668   0.000000   0.000000
   37  O  2 XX   -0.003680   0.000000   0.006462   0.000000   0.000000
   38  O  2 YY   -0.003191   0.000000   0.015712   0.000000   0.000000
   39  O  2 ZZ   -0.002021   0.000000   0.008190   0.000000   0.000000
   40  O  2 XY    0.000000   0.000000   0.000000   0.000000   0.000000
   41  O  2 XZ    0.000000   0.000000   0.000000   0.011950   0.000000
   42  O  2 YZ    0.000000   0.000370   0.000000   0.000000   0.004231
   43  O  2 XX   -0.069312   0.000000  -0.057510   0.000000   0.000000
   44  O  2 YY    0.000626   0.000000  -0.128868   0.000000   0.000000
   45  O  2 ZZ    0.009049   0.000000  -0.042898   0.000000   0.000000
   46  O  2 XY    0.000000   0.000000   0.000000   0.000000   0.000000
   47  O  2 XZ    0.000000   0.000000   0.000000  -0.004848   0.000000
   48  O  2 YZ    0.000000   0.094238   0.000000   0.000000   0.031805
   49  H  3  S    0.243822  -0.123626   0.053722   0.000000  -0.045591
   50  H  3  S   -6.029572   5.212192  -1.439331   0.000000   3.666302
   51  H  3  S   -0.136263   1.134771   1.080538   0.000000  -1.666023
   52  H  3  X    0.000000   0.000000   0.000000  -0.086006   0.000000
   53  H  3  Y    0.025299  -0.010608   0.027079   0.000000  -0.079364
   54  H  3  Z    0.025225  -0.012207   0.048255   0.000000   0.049660
   55  H  3  X    0.000000   0.000000   0.000000   1.524478   0.000000
   56  H  3  Y   -1.372938   0.606548   0.397927   0.000000   1.995726
   57  H  3  Z   -0.072741   1.592626  -1.596383   0.000000  -0.309385
   58  H  4  S    0.243822   0.123626   0.053722   0.000000   0.045591
   59  H  4  S   -6.029572  -5.212192  -1.439331   0.000000  -3.666302
   60  H  4  S   -0.136263  -1.134771   1.080538   0.000000   1.666023
   61  H  4  X    0.000000   0.000000   0.000000  -0.086006   0.000000
   62  H  4  Y   -0.025299  -0.010608  -0.027079   0.000000  -0.079364
   63  H  4  Z    0.025225   0.012207   0.048255   0.000000  -0.049660
   64  H  4  X    0.000000   0.000000   0.000000   1.524478   0.000000
   65  H  4  Y    1.372938   0.606548  -0.397927   0.000000   1.995726
   66  H  4  Z   -0.072741  -1.592626  -1.596383   0.000000   0.309385

                     26         27         28         29         30
                    0.5137     0.5958     0.6052     0.6174     0.6687
                     A1         A2         A1         B1         A1  
    1  C  1  S    0.038727   0.000000   0.139923   0.000000   0.246555
    2  C  1  S   -2.282834   0.000000   2.942755   0.000000   1.788398
    3  C  1  S    4.134490   0.000000   3.560860   0.000000  -0.081161
    4  C  1  X    0.000000   0.000000   0.000000  -0.038787   0.000000
    5  C  1  Y    0.000000   0.000000   0.000000   0.000000   0.000000
    6  C  1  Z   -0.166693   0.000000  -0.092790   0.000000   0.301884
    7  C  1  X    0.000000   0.000000   0.000000   0.022138   0.000000
    8  C  1  Y    0.000000   0.000000   0.000000   0.000000   0.000000
    9  C  1  Z    0.668209   0.000000   0.365785   0.000000   4.299395
   10  C  1  X    0.000000   0.000000   0.000000   0.125188   0.000000
   11  C  1  Y    0.000000   0.000000   0.000000   0.000000   0.000000
   12  C  1  Z   -0.427772   0.000000  -0.532604   0.000000   1.249716
   13  C  1 XX   -0.012226   0.000000  -0.020690   0.000000   0.002413
   14  C  1 YY    0.062232   0.000000   0.049240   0.000000   0.018270
   15  C  1 ZZ    0.052619   0.000000   0.118225   0.000000   0.030186
   16  C  1 XY    0.000000  -0.039528   0.000000   0.000000   0.000000
   17  C  1 XZ    0.000000   0.000000   0.000000   0.010413   0.000000
   18  C  1 YZ    0.000000   0.000000   0.000000   0.000000   0.000000
   19  C  1 XX   -1.862938   0.000000  -1.143772   0.000000  -0.712752
   20  C  1 YY   -0.564762   0.000000  -2.348649   0.000000   1.529114
   21  C  1 ZZ    0.143079   0.000000  -1.553873   0.000000  -2.166005
   22  C  1 XY    0.000000   2.272952   0.000000   0.000000   0.000000
   23  C  1 XZ    0.000000   0.000000   0.000000   2.107224   0.000000
   24  C  1 YZ    0.000000   0.000000   0.000000   0.000000   0.000000
   25  O  2  S   -0.011324   0.000000  -0.037250   0.000000  -0.206145
   26  O  2  S   -0.763078   0.000000  -0.690770   0.000000  -0.931831
   27  O  2  S   -0.278469   0.000000   2.170028   0.000000  -2.733553
   28  O  2  X    0.000000   0.000000   0.000000  -0.220601   0.000000
   29  O  2  Y    0.000000   0.000000   0.000000   0.000000   0.000000
   30  O  2  Z   -0.108354   0.000000  -0.004926   0.000000   0.423996
   31  O  2  X    0.000000   0.000000   0.000000  -0.919466   0.000000
   32  O  2  Y    0.000000   0.000000   0.000000   0.000000   0.000000
   33  O  2  Z    0.366227   0.000000   0.572303   0.000000   1.144748
   34  O  2  X    0.000000   0.000000   0.000000  -0.861651   0.000000
   35  O  2  Y    0.000000   0.000000   0.000000   0.000000   0.000000
   36  O  2  Z   -0.238167   0.000000  -1.015219   0.000000   0.079790
   37  O  2 XX   -0.011760   0.000000   0.005312   0.000000  -0.005355
   38  O  2 YY    0.017077   0.000000  -0.017005   0.000000   0.012624
   39  O  2 ZZ    0.012473   0.000000   0.018216   0.000000  -0.004157
   40  O  2 XY    0.000000   0.028665   0.000000   0.000000   0.000000
   41  O  2 XZ    0.000000   0.000000   0.000000  -0.022938   0.000000
   42  O  2 YZ    0.000000   0.000000   0.000000   0.000000   0.000000
   43  O  2 XX   -0.056782   0.000000   0.016007   0.000000   0.072572
   44  O  2 YY   -0.085539   0.000000   0.003145   0.000000  -0.029579
   45  O  2 ZZ   -0.229688   0.000000  -0.276098   0.000000  -0.236356
   46  O  2 XY    0.000000  -0.025944   0.000000   0.000000   0.000000
   47  O  2 XZ    0.000000   0.000000   0.000000   0.202860   0.000000
   48  O  2 YZ    0.000000   0.000000   0.000000   0.000000   0.000000
   49  H  3  S    0.006392   0.000000  -0.044684   0.000000   0.035410
   50  H  3  S    0.773569   0.000000  -1.470648   0.000000   1.408696
   51  H  3  S   -1.106741   0.000000  -0.547854   0.000000  -0.134635
   52  H  3  X    0.000000  -0.016876   0.000000  -0.000053   0.000000
   53  H  3  Y   -0.072034   0.000000  -0.021368   0.000000  -0.045820
   54  H  3  Z   -0.071241   0.000000  -0.017582   0.000000   0.012972
   55  H  3  X    0.000000   1.822428   0.000000   0.886852   0.000000
   56  H  3  Y    0.645165   0.000000  -1.121794   0.000000   1.490616
   57  H  3  Z    0.828221   0.000000  -0.856462   0.000000  -1.724201
   58  H  4  S    0.006392   0.000000  -0.044684   0.000000   0.035410
   59  H  4  S    0.773569   0.000000  -1.470648   0.000000   1.408696
   60  H  4  S   -1.106741   0.000000  -0.547854   0.000000  -0.134635
   61  H  4  X    0.000000   0.016876   0.000000  -0.000053   0.000000
   62  H  4  Y    0.072034   0.000000   0.021368   0.000000   0.045820
   63  H  4  Z   -0.071241   0.000000  -0.017582   0.000000   0.012972
   64  H  4  X    0.000000  -1.822428   0.000000   0.886852   0.000000
   65  H  4  Y   -0.645165   0.000000   1.121794   0.000000  -1.490616
   66  H  4  Z    0.828221   0.000000  -0.856462   0.000000  -1.724201

                     31         32         33         34         35
                    0.7399     0.7643     0.8120     0.8184     0.9019
                     B2         A1         B1         B2         A1  
    1  C  1  S    0.000000  -0.030047   0.000000   0.000000   0.485920
    2  C  1  S    0.000000  12.176586   0.000000   0.000000   2.515446
    3  C  1  S    0.000000   7.712745   0.000000   0.000000   3.876063
    4  C  1  X    0.000000   0.000000  -1.273132   0.000000   0.000000
    5  C  1  Y    0.652097   0.000000   0.000000  -0.830721   0.000000
    6  C  1  Z    0.000000  -0.370340   0.000000   0.000000   0.768122
    7  C  1  X    0.000000   0.000000   3.564376   0.000000   0.000000
    8  C  1  Y    1.361950   0.000000   0.000000   4.207991   0.000000
    9  C  1  Z    0.000000   5.747821   0.000000   0.000000  -1.184193
   10  C  1  X    0.000000   0.000000   0.154055   0.000000   0.000000
   11  C  1  Y    2.143827   0.000000   0.000000   2.895518   0.000000
   12  C  1  Z    0.000000  -0.586743   0.000000   0.000000  -0.454459
   13  C  1 XX    0.000000  -0.003484   0.000000   0.000000   0.194556
   14  C  1 YY    0.000000  -0.050017   0.000000   0.000000  -0.045002
   15  C  1 ZZ    0.000000   0.085635   0.000000   0.000000  -0.218440
   16  C  1 XY    0.000000   0.000000   0.000000   0.000000   0.000000
   17  C  1 XZ    0.000000   0.000000   0.070652   0.000000   0.000000
   18  C  1 YZ    0.132329   0.000000   0.000000  -0.029459   0.000000
   19  C  1 XX    0.000000  -0.749065   0.000000   0.000000  -0.061824
   20  C  1 YY    0.000000  -2.521801   0.000000   0.000000  -0.937361
   21  C  1 ZZ    0.000000   5.129174   0.000000   0.000000   3.310368
   22  C  1 XY    0.000000   0.000000   0.000000   0.000000   0.000000
   23  C  1 XZ    0.000000   0.000000  -0.313318   0.000000   0.000000
   24  C  1 YZ    2.380625   0.000000   0.000000   2.197684   0.000000
   25  O  2  S    0.000000  -0.333100   0.000000   0.000000  -0.317106
   26  O  2  S    0.000000  -6.080458   0.000000   0.000000  -1.522722
   27  O  2  S    0.000000  -8.869001   0.000000   0.000000  -2.142351
   28  O  2  X    0.000000   0.000000   0.041314   0.000000   0.000000
   29  O  2  Y   -0.268189   0.000000   0.000000  -0.162139   0.000000
   30  O  2  Z    0.000000  -0.024801   0.000000   0.000000   0.378136
   31  O  2  X    0.000000   0.000000  -0.331886   0.000000   0.000000
   32  O  2  Y   -0.874462   0.000000   0.000000  -1.221356   0.000000
   33  O  2  Z    0.000000   1.740780   0.000000   0.000000  -0.176736
   34  O  2  X    0.000000   0.000000  -0.583112   0.000000   0.000000
   35  O  2  Y   -0.553654   0.000000   0.000000  -1.756201   0.000000
   36  O  2  Z    0.000000   2.612852   0.000000   0.000000   0.049338
   37  O  2 XX    0.000000   0.057686   0.000000   0.000000  -0.000631
   38  O  2 YY    0.000000   0.043933   0.000000   0.000000  -0.009980
   39  O  2 ZZ    0.000000  -0.018899   0.000000   0.000000   0.025191
   40  O  2 XY    0.000000   0.000000   0.000000   0.000000   0.000000
   41  O  2 XZ    0.000000   0.000000  -0.005047   0.000000   0.000000
   42  O  2 YZ   -0.020960   0.000000   0.000000  -0.027770   0.000000
   43  O  2 XX    0.000000  -0.525933   0.000000   0.000000  -0.246972
   44  O  2 YY    0.000000  -0.549025   0.000000   0.000000  -0.092001
   45  O  2 ZZ    0.000000  -0.795958   0.000000   0.000000   0.802554
   46  O  2 XY    0.000000   0.000000   0.000000   0.000000   0.000000
   47  O  2 XZ    0.000000   0.000000   0.416282   0.000000   0.000000
   48  O  2 YZ    0.019418   0.000000   0.000000   0.469743   0.000000
   49  H  3  S    0.168361  -0.137333   0.000000   0.133758  -0.354720
   50  H  3  S    4.137988  -2.908608   0.000000   3.088505  -2.892780
   51  H  3  S    0.444780  -0.382643   0.000000   0.660266   0.227831
   52  H  3  X    0.000000   0.000000  -0.116505   0.000000   0.000000
   53  H  3  Y   -0.133026   0.025690   0.000000   0.151897   0.066918
   54  H  3  Z   -0.136323   0.008660   0.000000   0.183106   0.174367
   55  H  3  X    0.000000   0.000000  -0.996371   0.000000   0.000000
   56  H  3  Y    1.440121  -1.797686   0.000000  -0.382795  -1.309259
   57  H  3  Z    2.049706   0.869955   0.000000   1.260823   0.789414
   58  H  4  S   -0.168361  -0.137333   0.000000  -0.133758  -0.354720
   59  H  4  S   -4.137988  -2.908608   0.000000  -3.088505  -2.892780
   60  H  4  S   -0.444780  -0.382643   0.000000  -0.660266   0.227831
   61  H  4  X    0.000000   0.000000  -0.116505   0.000000   0.000000
   62  H  4  Y   -0.133026  -0.025690   0.000000   0.151897  -0.066918
   63  H  4  Z    0.136323   0.008660   0.000000  -0.183106   0.174367
   64  H  4  X    0.000000   0.000000  -0.996371   0.000000   0.000000
   65  H  4  Y    1.440121   1.797686   0.000000  -0.382795   1.309259
   66  H  4  Z   -2.049706   0.869955   0.000000  -1.260823   0.789414

                     36         37         38         39         40
                    1.0353     1.1538     1.1987     1.2135     1.2701
                     A1         B2         A2         B1         A1  
    1  C  1  S    0.348222   0.000000   0.000000   0.000000   0.341772
    2  C  1  S   -1.594077   0.000000   0.000000   0.000000  -3.282240
    3  C  1  S    0.374714   0.000000   0.000000   0.000000  -1.807251
    4  C  1  X    0.000000   0.000000   0.000000   0.538907   0.000000
    5  C  1  Y    0.000000   0.445287   0.000000   0.000000   0.000000
    6  C  1  Z   -0.569263   0.000000   0.000000   0.000000  -0.193213
    7  C  1  X    0.000000   0.000000   0.000000   0.067796   0.000000
    8  C  1  Y    0.000000  -0.375755   0.000000   0.000000   0.000000
    9  C  1  Z   -1.818843   0.000000   0.000000   0.000000  -0.932670
   10  C  1  X    0.000000   0.000000   0.000000   0.467164   0.000000
   11  C  1  Y    0.000000   2.413731   0.000000   0.000000   0.000000
   12  C  1  Z   -0.365448   0.000000   0.000000   0.000000  -0.415181
   13  C  1 XX    0.172091   0.000000   0.000000   0.000000   0.231927
   14  C  1 YY   -0.385068   0.000000   0.000000   0.000000  -0.298382
   15  C  1 ZZ   -0.056685   0.000000   0.000000   0.000000  -0.216910
   16  C  1 XY    0.000000   0.000000   0.101049   0.000000   0.000000
   17  C  1 XZ    0.000000   0.000000   0.000000  -0.176992   0.000000
   18  C  1 YZ    0.000000  -0.301724   0.000000   0.000000   0.000000
   19  C  1 XX    0.865619   0.000000   0.000000   0.000000  -0.039323
   20  C  1 YY    2.457985   0.000000   0.000000   0.000000   2.571699
   21  C  1 ZZ   -1.957026   0.000000   0.000000   0.000000  -0.848696
   22  C  1 XY    0.000000   0.000000   1.156248   0.000000   0.000000
   23  C  1 XZ    0.000000   0.000000   0.000000   0.532273   0.000000
   24  C  1 YZ    0.000000   2.243627   0.000000   0.000000   0.000000
   25  O  2  S    0.155564   0.000000   0.000000   0.000000   0.005903
   26  O  2  S    2.809027   0.000000   0.000000   0.000000   1.857557
   27  O  2  S    2.731338   0.000000   0.000000   0.000000   3.914291
   28  O  2  X    0.000000   0.000000   0.000000  -0.528370   0.000000
   29  O  2  Y    0.000000  -0.353480   0.000000   0.000000   0.000000
   30  O  2  Z   -0.020039   0.000000   0.000000   0.000000   0.377170
   31  O  2  X    0.000000   0.000000   0.000000   0.509874   0.000000
   32  O  2  Y    0.000000  -0.100592   0.000000   0.000000   0.000000
   33  O  2  Z   -1.151055   0.000000   0.000000   0.000000  -1.235348
   34  O  2  X    0.000000   0.000000   0.000000  -0.873140   0.000000
   35  O  2  Y    0.000000  -1.599333   0.000000   0.000000   0.000000
   36  O  2  Z   -0.681078   0.000000   0.000000   0.000000  -0.710572
   37  O  2 XX   -0.004166   0.000000   0.000000   0.000000   0.007145
   38  O  2 YY   -0.012144   0.000000   0.000000   0.000000   0.023358
   39  O  2 ZZ   -0.018078   0.000000   0.000000   0.000000   0.043398
   40  O  2 XY    0.000000   0.000000   0.017868   0.000000   0.000000
   41  O  2 XZ    0.000000   0.000000   0.000000  -0.004624   0.000000
   42  O  2 YZ    0.000000  -0.004303   0.000000   0.000000   0.000000
   43  O  2 XX   -0.330978   0.000000   0.000000   0.000000  -0.012081
   44  O  2 YY    0.697995   0.000000   0.000000   0.000000  -1.439919
   45  O  2 ZZ    0.296188   0.000000   0.000000   0.000000  -0.286663
   46  O  2 XY    0.000000   0.000000  -1.092197   0.000000   0.000000
   47  O  2 XZ    0.000000   0.000000   0.000000   0.994539   0.000000
   48  O  2 YZ    0.000000   0.723624   0.000000   0.000000   0.000000
   49  H  3  S   -0.666603  -0.863586   0.000000   0.000000  -0.416038
   50  H  3  S   -2.569945   0.745866   0.000000   0.000000  -0.541669
   51  H  3  S    0.566861   1.819225   0.000000   0.000000   0.318907
   52  H  3  X    0.000000   0.000000  -0.324108   0.228174   0.000000
   53  H  3  Y    0.452066  -0.027969   0.000000   0.000000   0.262211
   54  H  3  Z    0.193970   0.138331   0.000000   0.000000   0.123020
   55  H  3  X    0.000000   0.000000   0.972872  -0.063917   0.000000
   56  H  3  Y   -0.155252   0.308837   0.000000   0.000000   0.642111
   57  H  3  Z   -1.536062   0.610834   0.000000   0.000000  -0.611900
   58  H  4  S   -0.666603   0.863586   0.000000   0.000000  -0.416038
   59  H  4  S   -2.569945  -0.745866   0.000000   0.000000  -0.541669
   60  H  4  S    0.566861  -1.819225   0.000000   0.000000   0.318907
   61  H  4  X    0.000000   0.000000   0.324108   0.228174   0.000000
   62  H  4  Y   -0.452066  -0.027969   0.000000   0.000000  -0.262211
   63  H  4  Z    0.193970  -0.138331   0.000000   0.000000   0.123020
   64  H  4  X    0.000000   0.000000  -0.972872  -0.063917   0.000000
   65  H  4  Y    0.155252   0.308837   0.000000   0.000000  -0.642111
   66  H  4  Z   -1.536062  -0.610834   0.000000   0.000000  -0.611900

                     41         42         43         44         45
                    1.3304     1.3723     1.3975     1.4668     1.5145
                     A2         A1         B2         B1         B2  
    1  C  1  S    0.000000  -0.104812   0.000000   0.000000   0.000000
    2  C  1  S    0.000000   4.070533   0.000000   0.000000   0.000000
    3  C  1  S    0.000000   0.124189   0.000000   0.000000   0.000000
    4  C  1  X    0.000000   0.000000   0.000000   0.548613   0.000000
    5  C  1  Y    0.000000   0.000000   0.169042   0.000000   0.101301
    6  C  1  Z    0.000000   0.683180   0.000000   0.000000   0.000000
    7  C  1  X    0.000000   0.000000   0.000000  -0.713142   0.000000
    8  C  1  Y    0.000000   0.000000   1.622536   0.000000   0.794239
    9  C  1  Z    0.000000   0.206374   0.000000   0.000000   0.000000
   10  C  1  X    0.000000   0.000000   0.000000  -0.277623   0.000000
   11  C  1  Y    0.000000   0.000000   1.280763   0.000000  -0.335671
   12  C  1  Z    0.000000  -0.782778   0.000000   0.000000   0.000000
   13  C  1 XX    0.000000   0.025481   0.000000   0.000000   0.000000
   14  C  1 YY    0.000000   0.321175   0.000000   0.000000   0.000000
   15  C  1 ZZ    0.000000  -0.300582   0.000000   0.000000   0.000000
   16  C  1 XY   -0.381840   0.000000   0.000000   0.000000   0.000000
   17  C  1 XZ    0.000000   0.000000   0.000000   0.175368   0.000000
   18  C  1 YZ    0.000000   0.000000   0.443410   0.000000   0.059995
   19  C  1 XX    0.000000  -0.745745   0.000000   0.000000   0.000000
   20  C  1 YY    0.000000  -3.376978   0.000000   0.000000   0.000000
   21  C  1 ZZ    0.000000   1.618959   0.000000   0.000000   0.000000
   22  C  1 XY    1.376739   0.000000   0.000000   0.000000   0.000000
   23  C  1 XZ    0.000000   0.000000   0.000000  -0.475703   0.000000
   24  C  1 YZ    0.000000   0.000000  -1.299347   0.000000   0.086515
   25  O  2  S    0.000000  -0.259310   0.000000   0.000000   0.000000
   26  O  2  S    0.000000  -2.157307   0.000000   0.000000   0.000000
   27  O  2  S    0.000000   1.945536   0.000000   0.000000   0.000000
   28  O  2  X    0.000000   0.000000   0.000000  -0.805136   0.000000
   29  O  2  Y    0.000000   0.000000  -0.500977   0.000000  -0.065155
   30  O  2  Z    0.000000   0.759126   0.000000   0.000000   0.000000
   31  O  2  X    0.000000   0.000000   0.000000   1.167299   0.000000
   32  O  2  Y    0.000000   0.000000   0.683342   0.000000  -0.200474
   33  O  2  Z    0.000000  -0.173904   0.000000   0.000000   0.000000
   34  O  2  X    0.000000   0.000000   0.000000   0.094508   0.000000
   35  O  2  Y    0.000000   0.000000  -0.572069   0.000000  -0.095943
   36  O  2  Z    0.000000   0.009382   0.000000   0.000000   0.000000
   37  O  2 XX    0.000000   0.024935   0.000000   0.000000   0.000000
   38  O  2 YY    0.000000   0.012789   0.000000   0.000000   0.000000
   39  O  2 ZZ    0.000000   0.109708   0.000000   0.000000   0.000000
   40  O  2 XY    0.001426   0.000000   0.000000   0.000000   0.000000
   41  O  2 XZ    0.000000   0.000000   0.000000  -0.021124   0.000000
   42  O  2 YZ    0.000000   0.000000  -0.008438   0.000000  -0.018019
   43  O  2 XX    0.000000  -1.304596   0.000000   0.000000   0.000000
   44  O  2 YY    0.000000  -0.212945   0.000000   0.000000   0.000000
   45  O  2 ZZ    0.000000  -1.435646   0.000000   0.000000   0.000000
   46  O  2 XY   -0.652905   0.000000   0.000000   0.000000   0.000000
   47  O  2 XZ    0.000000   0.000000   0.000000   0.094120   0.000000
   48  O  2 YZ    0.000000   0.000000   1.039763   0.000000   0.036744
   49  H  3  S    0.000000   0.196913   0.951947   0.000000   0.427242
   50  H  3  S    0.000000  -0.173240   2.221534   0.000000   1.223556
   51  H  3  S    0.000000  -0.221403  -0.004111   0.000000  -0.930232
   52  H  3  X    0.671576   0.000000   0.000000  -0.773428   0.000000
   53  H  3  Y    0.000000  -0.274673  -0.250989   0.000000  -0.674224
   54  H  3  Z    0.000000  -0.121449  -0.274016   0.000000   0.680904
   55  H  3  X    0.364115   0.000000   0.000000   0.461836   0.000000
   56  H  3  Y    0.000000  -1.052951   0.314628   0.000000   0.854659
   57  H  3  Z    0.000000   0.861558  -0.135243   0.000000  -0.309244
   58  H  4  S    0.000000   0.196913  -0.951947   0.000000  -0.427242
   59  H  4  S    0.000000  -0.173240  -2.221534   0.000000  -1.223556
   60  H  4  S    0.000000  -0.221403   0.004111   0.000000   0.930232
   61  H  4  X   -0.671576   0.000000   0.000000  -0.773428   0.000000
   62  H  4  Y    0.000000   0.274673  -0.250989   0.000000  -0.674224
   63  H  4  Z    0.000000  -0.121449   0.274016   0.000000  -0.680904
   64  H  4  X   -0.364115   0.000000   0.000000   0.461836   0.000000
   65  H  4  Y    0.000000   1.052951   0.314628   0.000000   0.854659
   66  H  4  Z    0.000000   0.861558   0.135243   0.000000   0.309244

                     46         47         48         49         50
                    1.5181     1.5728     1.6835     1.7926     1.8263
                     A1         A1         B1         A1         B2  
    1  C  1  S    0.013397   0.431986   0.000000  -1.129706   0.000000
    2  C  1  S    8.821770  -1.262037   0.000000   6.828637   0.000000
    3  C  1  S    1.469657  -1.737336   0.000000   1.942388   0.000000
    4  C  1  X    0.000000   0.000000  -0.922518   0.000000   0.000000
    5  C  1  Y    0.000000   0.000000   0.000000   0.000000   0.224329
    6  C  1  Z   -0.092513  -0.607838   0.000000  -0.311227   0.000000
    7  C  1  X    0.000000   0.000000  -0.390652   0.000000   0.000000
    8  C  1  Y    0.000000   0.000000   0.000000   0.000000  -2.916759
    9  C  1  Z    7.364269  -0.966108   0.000000   2.839296   0.000000
   10  C  1  X    0.000000   0.000000   0.243987   0.000000   0.000000
   11  C  1  Y    0.000000   0.000000   0.000000   0.000000  -1.026188
   12  C  1  Z    0.122693   0.096939   0.000000   0.205159   0.000000
   13  C  1 XX   -0.362922  -0.416288   0.000000   0.663075   0.000000
   14  C  1 YY    0.047335   0.280340   0.000000  -0.193500   0.000000
   15  C  1 ZZ    0.457393  -0.172492   0.000000   0.309747   0.000000
   16  C  1 XY    0.000000   0.000000   0.000000   0.000000   0.000000
   17  C  1 XZ    0.000000   0.000000  -0.045474   0.000000   0.000000
   18  C  1 YZ    0.000000   0.000000   0.000000   0.000000   0.084262
   19  C  1 XX   -0.052209   1.319570   0.000000  -1.864275   0.000000
   20  C  1 YY   -1.644057  -0.844552   0.000000  -2.483416   0.000000
   21  C  1 ZZ    3.706170   2.670342   0.000000   0.782496   0.000000
   22  C  1 XY    0.000000   0.000000   0.000000   0.000000   0.000000
   23  C  1 XZ    0.000000   0.000000  -0.947011   0.000000   0.000000
   24  C  1 YZ    0.000000   0.000000   0.000000   0.000000  -2.223349
   25  O  2  S   -0.067710   0.150367   0.000000   0.185976   0.000000
   26  O  2  S   -6.437340  -0.090349   0.000000  -3.549217   0.000000
   27  O  2  S   -5.254508   0.988599   0.000000  -1.573985   0.000000
   28  O  2  X    0.000000   0.000000  -1.157540   0.000000   0.000000
   29  O  2  Y    0.000000   0.000000   0.000000   0.000000  -1.286271
   30  O  2  Z   -0.274988  -0.098952   0.000000  -0.634317   0.000000
   31  O  2  X    0.000000   0.000000   2.444287   0.000000   0.000000
   32  O  2  Y    0.000000   0.000000   0.000000   0.000000   3.146912
   33  O  2  Z    2.638344  -1.126012   0.000000   2.378463   0.000000
   34  O  2  X    0.000000   0.000000   0.136831   0.000000   0.000000
   35  O  2  Y    0.000000   0.000000   0.000000   0.000000   0.495503
   36  O  2  Z    1.363894  -0.307071   0.000000  -0.056465   0.000000
   37  O  2 XX    0.038392   0.003917   0.000000   0.032211   0.000000
   38  O  2 YY    0.049947   0.015668   0.000000   0.009622   0.000000
   39  O  2 ZZ   -0.001066  -0.033444   0.000000  -0.026079   0.000000
   40  O  2 XY    0.000000   0.000000   0.000000   0.000000   0.000000
   41  O  2 XZ    0.000000   0.000000   0.007752   0.000000   0.000000
   42  O  2 YZ    0.000000   0.000000   0.000000   0.000000  -0.035873
   43  O  2 XX   -1.943809  -0.358916   0.000000  -0.783255   0.000000
   44  O  2 YY   -1.348133  -0.150868   0.000000  -0.320335   0.000000
   45  O  2 ZZ   -0.290279   0.401693   0.000000  -0.762042   0.000000
   46  O  2 XY    0.000000   0.000000   0.000000   0.000000   0.000000
   47  O  2 XZ    0.000000   0.000000  -0.985215   0.000000   0.000000
   48  O  2 YZ    0.000000   0.000000   0.000000   0.000000  -0.833064
   49  H  3  S    0.405915   0.192353   0.000000  -0.225238  -0.080373
   50  H  3  S   -0.155472  -0.820757   0.000000   0.093205  -2.493757
   51  H  3  S   -0.078278   0.536752   0.000000  -0.293984   0.178326
   52  H  3  X    0.000000   0.000000   0.429159   0.000000   0.000000
   53  H  3  Y    0.032385  -0.031270   0.000000  -0.875509   0.412585
   54  H  3  Z   -0.252030   0.888920   0.000000   0.267676   0.265630
   55  H  3  X    0.000000   0.000000  -0.408295   0.000000   0.000000
   56  H  3  Y   -0.595705  -0.999635   0.000000  -0.093313  -0.568253
   57  H  3  Z    0.349660   0.179372   0.000000   0.202949  -1.382620
   58  H  4  S    0.405915   0.192353   0.000000  -0.225238   0.080373
   59  H  4  S   -0.155472  -0.820757   0.000000   0.093205   2.493757
   60  H  4  S   -0.078278   0.536752   0.000000  -0.293984  -0.178326
   61  H  4  X    0.000000   0.000000   0.429159   0.000000   0.000000
   62  H  4  Y   -0.032385   0.031270   0.000000   0.875509   0.412585
   63  H  4  Z   -0.252030   0.888920   0.000000   0.267676  -0.265630
   64  H  4  X    0.000000   0.000000  -0.408295   0.000000   0.000000
   65  H  4  Y    0.595705   0.999635   0.000000   0.093313  -0.568253
   66  H  4  Z    0.349660   0.179372   0.000000   0.202949   1.382620

                     51         52         53         54         55
                    2.0190     2.0562     2.1318     2.2003     2.3676
                     A2         B1         B2         A1         A1  
    1  C  1  S    0.000000   0.000000   0.000000  -1.819628   3.163995
    2  C  1  S    0.000000   0.000000   0.000000  10.471277   1.858732
    3  C  1  S    0.000000   0.000000   0.000000   3.623901  -1.487948
    4  C  1  X    0.000000   0.289603   0.000000   0.000000   0.000000
    5  C  1  Y    0.000000   0.000000  -1.977743   0.000000   0.000000
    6  C  1  Z    0.000000   0.000000   0.000000   2.389721   0.580514
    7  C  1  X    0.000000   1.162603   0.000000   0.000000   0.000000
    8  C  1  Y    0.000000   0.000000  -0.784550   0.000000   0.000000
    9  C  1  Z    0.000000   0.000000   0.000000   1.627583   1.103523
   10  C  1  X    0.000000   0.086486   0.000000   0.000000   0.000000
   11  C  1  Y    0.000000   0.000000  -0.335869   0.000000   0.000000
   12  C  1  Z    0.000000   0.000000   0.000000  -0.203772   0.463741
   13  C  1 XX    0.000000   0.000000   0.000000   0.007992  -1.250143
   14  C  1 YY    0.000000   0.000000   0.000000  -0.153648  -1.138119
   15  C  1 ZZ    0.000000   0.000000   0.000000   0.877771   0.529539
   16  C  1 XY    1.290118   0.000000   0.000000   0.000000   0.000000
   17  C  1 XZ    0.000000   1.478559   0.000000   0.000000   0.000000
   18  C  1 YZ    0.000000   0.000000  -0.325803   0.000000   0.000000
   19  C  1 XX    0.000000   0.000000   0.000000  -2.057316  -0.506907
   20  C  1 YY    0.000000   0.000000   0.000000  -1.336959  -0.384475
   21  C  1 ZZ    0.000000   0.000000   0.000000  -2.095364  -1.120294
   22  C  1 XY   -0.568607   0.000000   0.000000   0.000000   0.000000
   23  C  1 XZ    0.000000  -0.138758   0.000000   0.000000   0.000000
   24  C  1 YZ    0.000000   0.000000  -1.709614   0.000000   0.000000
   25  O  2  S    0.000000   0.000000   0.000000  -0.043196  -0.172400
   26  O  2  S    0.000000   0.000000   0.000000  -3.116491  -1.659497
   27  O  2  S    0.000000   0.000000   0.000000  -1.829613  -0.896196
   28  O  2  X    0.000000  -0.048832   0.000000   0.000000   0.000000
   29  O  2  Y    0.000000   0.000000  -0.554633   0.000000   0.000000
   30  O  2  Z    0.000000   0.000000   0.000000  -0.217847   0.463440
   31  O  2  X    0.000000  -0.981129   0.000000   0.000000   0.000000
   32  O  2  Y    0.000000   0.000000   2.320597   0.000000   0.000000
   33  O  2  Z    0.000000   0.000000   0.000000   3.800478   1.467633
   34  O  2  X    0.000000  -0.114277   0.000000   0.000000   0.000000
   35  O  2  Y    0.000000   0.000000   0.674377   0.000000   0.000000
   36  O  2  Z    0.000000   0.000000   0.000000   0.248576   0.233403
   37  O  2 XX    0.000000   0.000000   0.000000  -0.034492  -0.063204
   38  O  2 YY    0.000000   0.000000   0.000000  -0.044715  -0.056152
   39  O  2 ZZ    0.000000   0.000000   0.000000   0.109975   0.115259
   40  O  2 XY    0.042702   0.000000   0.000000   0.000000   0.000000
   41  O  2 XZ    0.000000  -0.074523   0.000000   0.000000   0.000000
   42  O  2 YZ    0.000000   0.000000   0.057715   0.000000   0.000000
   43  O  2 XX    0.000000   0.000000   0.000000   0.164783   0.366277
   44  O  2 YY    0.000000   0.000000   0.000000   0.024916   0.390803
   45  O  2 ZZ    0.000000   0.000000   0.000000  -2.009096  -0.961269
   46  O  2 XY   -0.239307   0.000000   0.000000   0.000000   0.000000
   47  O  2 XZ    0.000000   1.106399   0.000000   0.000000   0.000000
   48  O  2 YZ    0.000000   0.000000  -1.066041   0.000000   0.000000
   49  H  3  S    0.000000   0.000000  -0.201084  -0.244082  -0.290646
   50  H  3  S    0.000000   0.000000   0.300223  -1.114592   1.319217
   51  H  3  S    0.000000   0.000000  -0.255405  -0.334262  -0.016274
   52  H  3  X    0.760756   0.442318   0.000000   0.000000   0.000000
   53  H  3  Y    0.000000   0.000000  -0.672993   0.466955  -0.701254
   54  H  3  Z    0.000000   0.000000  -0.768570   0.414137   0.111327
   55  H  3  X   -0.655343  -0.517295   0.000000   0.000000   0.000000
   56  H  3  Y    0.000000   0.000000   0.543293  -0.266835   0.589613
   57  H  3  Z    0.000000   0.000000  -0.253842  -0.894676  -0.225334
   58  H  4  S    0.000000   0.000000   0.201084  -0.244082  -0.290646
   59  H  4  S    0.000000   0.000000  -0.300223  -1.114592   1.319217
   60  H  4  S    0.000000   0.000000   0.255405  -0.334262  -0.016274
   61  H  4  X   -0.760756   0.442318   0.000000   0.000000   0.000000
   62  H  4  Y    0.000000   0.000000  -0.672993  -0.466955   0.701254
   63  H  4  Z    0.000000   0.000000   0.768570   0.414137   0.111327
   64  H  4  X    0.655343  -0.517295   0.000000   0.000000   0.000000
   65  H  4  Y    0.000000   0.000000   0.543293   0.266835  -0.589613
   66  H  4  Z    0.000000   0.000000   0.253842  -0.894676  -0.225334

                     56         57         58         59         60
                    2.6271     2.7900     2.8989     3.7825     3.7921
                     A1         B2         A1         A2         A1  
    1  C  1  S   -3.428157   0.000000   1.353414   0.000000  -0.069393
    2  C  1  S    3.673138   0.000000  10.188890   0.000000   2.333974
    3  C  1  S   -0.677363   0.000000   2.351851   0.000000   0.698892
    4  C  1  X    0.000000   0.000000   0.000000   0.000000   0.000000
    5  C  1  Y    0.000000  -1.041293   0.000000   0.000000   0.000000
    6  C  1  Z   -0.564132   0.000000   0.437371   0.000000  -0.070965
    7  C  1  X    0.000000   0.000000   0.000000   0.000000   0.000000
    8  C  1  Y    0.000000   0.922599   0.000000   0.000000   0.000000
    9  C  1  Z   -0.928020   0.000000   2.155105   0.000000   0.658098
[...]
   12  C  1  Z    0.049909   0.000000  -0.132346   0.000000  -0.077872
   13  C  1 XX   -0.255872   0.000000  -0.973231   0.000000  -0.114355
   14  C  1 YY    1.365518   0.000000   1.016770   0.000000   0.190797
   15  C  1 ZZ    1.559906   0.000000  -1.094966   0.000000   0.002766
   16  C  1 XY    0.000000   0.000000   0.000000  -0.086662   0.000000
   17  C  1 XZ    0.000000   0.000000   0.000000   0.000000   0.000000
   18  C  1 YZ    0.000000   1.965928   0.000000   0.000000   0.000000
   19  C  1 XX   -1.585077   0.000000  -2.436234   0.000000  -0.084518
   20  C  1 YY   -1.243411   0.000000  -2.125923   0.000000  -1.116544
   21  C  1 ZZ   -2.560954   0.000000  -1.057988   0.000000   0.490418
   22  C  1 XY    0.000000   0.000000   0.000000   0.592778   0.000000
   23  C  1 XZ    0.000000   0.000000   0.000000   0.000000   0.000000
   24  C  1 YZ    0.000000   1.548476   0.000000   0.000000   0.000000
   25  O  2  S   -0.070256   0.000000   0.239731   0.000000   0.209822
   26  O  2  S   -0.255820   0.000000  -2.975911   0.000000  -1.269305
   27  O  2  S    2.653752   0.000000  -2.312404   0.000000  -0.596615
   28  O  2  X    0.000000   0.000000   0.000000   0.000000   0.000000
   29  O  2  Y    0.000000   0.104616   0.000000   0.000000   0.000000
   30  O  2  Z    0.763608   0.000000  -1.107672   0.000000  -0.031820
   31  O  2  X    0.000000   0.000000   0.000000   0.000000   0.000000
   32  O  2  Y    0.000000  -1.821464   0.000000   0.000000   0.000000
   33  O  2  Z   -0.461086   0.000000   4.095910   0.000000   0.383065
   34  O  2  X    0.000000   0.000000   0.000000   0.000000   0.000000
   35  O  2  Y    0.000000  -0.516025   0.000000   0.000000   0.000000
   36  O  2  Z   -0.937227   0.000000   0.652029   0.000000   0.148933
   37  O  2 XX    0.005550   0.000000  -0.081764   0.000000   0.978042
   38  O  2 YY    0.081447   0.000000   0.033722   0.000000  -1.063325
   39  O  2 ZZ   -0.169771   0.000000   0.106080   0.000000   0.041555
   40  O  2 XY    0.000000   0.000000   0.000000   1.181660   0.000000
   41  O  2 XZ    0.000000   0.000000   0.000000   0.000000   0.000000
   42  O  2 YZ    0.000000  -0.190760   0.000000   0.000000   0.000000
   43  O  2 XX    0.374957   0.000000  -0.206558   0.000000  -0.700223
   44  O  2 YY    0.041075   0.000000  -0.681956   0.000000   0.579220
   45  O  2 ZZ    0.525618   0.000000  -2.113414   0.000000  -0.128795
   46  O  2 XY    0.000000   0.000000   0.000000  -0.744019   0.000000
   47  O  2 XZ    0.000000   0.000000   0.000000   0.000000   0.000000
   48  O  2 YZ    0.000000   1.275230   0.000000   0.000000   0.000000
   49  H  3  S   -1.527354  -1.755337  -1.631884   0.000000  -0.069906
   50  H  3  S    0.829016   0.863558   0.169333   0.000000  -0.312658
   51  H  3  S   -0.216189   0.358884  -0.437426   0.000000  -0.039996
   52  H  3  X    0.000000   0.000000   0.000000   0.013278   0.000000
   53  H  3  Y   -0.854718  -1.026076  -0.524815   0.000000  -0.144230
   54  H  3  Z   -0.419599  -0.179323  -0.882301   0.000000  -0.080570
   55  H  3  X    0.000000   0.000000   0.000000   0.343368   0.000000
   56  H  3  Y    0.290446   0.401327  -0.047547   0.000000  -0.397509
   57  H  3  Z   -0.212574   0.465381   0.302494   0.000000   0.120026
   58  H  4  S   -1.527354   1.755337  -1.631884   0.000000  -0.069906
   59  H  4  S    0.829016  -0.863558   0.169333   0.000000  -0.312658
   60  H  4  S   -0.216189  -0.358884  -0.437426   0.000000  -0.039996
   61  H  4  X    0.000000   0.000000   0.000000  -0.013278   0.000000
   62  H  4  Y    0.854718  -1.026076   0.524815   0.000000   0.144230
   63  H  4  Z   -0.419599   0.179323  -0.882301   0.000000  -0.080570
   64  H  4  X    0.000000   0.000000   0.000000  -0.343368   0.000000
   65  H  4  Y   -0.290446   0.401327   0.047547   0.000000   0.397509
   66  H  4  Z   -0.212574  -0.465381   0.302494   0.000000   0.120026

                     61         62         63         64         65
                    3.8322     3.9542     4.0820     5.1322     6.1192
                     B1         B2         A1         A1         A1  
    1  C  1  S    0.000000   0.000000   0.443143   0.377744  -7.971635
    2  C  1  S    0.000000   0.000000   3.543618  -4.332978   9.638608
    3  C  1  S    0.000000   0.000000   0.579608  -0.205630   2.084153
    4  C  1  X   -0.050674   0.000000   0.000000   0.000000   0.000000
    5  C  1  Y    0.000000  -0.215994   0.000000   0.000000   0.000000
    6  C  1  Z    0.000000   0.000000   0.965368   0.292001  -0.543884
    7  C  1  X   -0.460451   0.000000   0.000000   0.000000   0.000000
    8  C  1  Y    0.000000  -1.059476   0.000000   0.000000   0.000000
    9  C  1  Z    0.000000   0.000000   2.050697  -2.078009  -1.744958
   10  C  1  X   -0.123397   0.000000   0.000000   0.000000   0.000000
   11  C  1  Y    0.000000  -1.144442   0.000000   0.000000   0.000000
   12  C  1  Z    0.000000   0.000000   0.113696   0.333936  -0.445825
   13  C  1 XX    0.000000   0.000000  -0.385983  -0.007914  -0.948194
   14  C  1 YY    0.000000   0.000000  -0.507039  -0.181374  -1.371510
   15  C  1 ZZ    0.000000   0.000000   0.420838   0.336613  -1.422572
   16  C  1 XY    0.000000   0.000000   0.000000   0.000000   0.000000
   17  C  1 XZ    0.249597   0.000000   0.000000   0.000000   0.000000
   18  C  1 YZ    0.000000   0.591297   0.000000   0.000000   0.000000
   19  C  1 XX    0.000000   0.000000  -0.385317   0.635430  -3.035355
   20  C  1 YY    0.000000   0.000000  -0.656818   1.061156  -3.116653
   21  C  1 ZZ    0.000000   0.000000   0.697895  -0.868096  -3.662951
   22  C  1 XY    0.000000   0.000000   0.000000   0.000000   0.000000
   23  C  1 XZ   -0.411463   0.000000   0.000000   0.000000   0.000000
   24  C  1 YZ    0.000000  -0.438313   0.000000   0.000000   0.000000
   25  O  2  S    0.000000   0.000000  -0.374016   7.357080   0.006231
   26  O  2  S    0.000000   0.000000  -2.389804  -5.265726   1.832239
   27  O  2  S    0.000000   0.000000  -1.489206  -0.545550   3.434192
   28  O  2  X   -0.122161   0.000000   0.000000   0.000000   0.000000
   29  O  2  Y    0.000000  -0.158612   0.000000   0.000000   0.000000
   30  O  2  Z    0.000000   0.000000   0.208211   0.377679  -0.069567
   31  O  2  X    0.371935   0.000000   0.000000   0.000000   0.000000
   32  O  2  Y    0.000000   0.316221   0.000000   0.000000   0.000000
   33  O  2  Z    0.000000   0.000000   1.242802  -1.122702  -1.791904
   34  O  2  X    0.401354   0.000000   0.000000   0.000000   0.000000
   35  O  2  Y    0.000000   0.675382   0.000000   0.000000   0.000000
   36  O  2  Z    0.000000   0.000000   0.148196  -0.160585  -1.119874
   37  O  2 XX    0.000000   0.000000   0.720660  -1.108967  -0.122723
   38  O  2 YY    0.000000   0.000000   0.599680  -1.039240  -0.116025
   39  O  2 ZZ    0.000000   0.000000  -1.220737  -1.229892   0.192383
   40  O  2 XY    0.000000   0.000000   0.000000   0.000000   0.000000
   41  O  2 XZ    1.206632   0.000000   0.000000   0.000000   0.000000
   42  O  2 YZ    0.000000   1.210055   0.000000   0.000000   0.000000
   43  O  2 XX    0.000000   0.000000  -0.706845   2.181505  -0.004740
   44  O  2 YY    0.000000   0.000000  -0.535061   2.073135   0.071262
   45  O  2 ZZ    0.000000   0.000000   0.137212   2.181830   1.019186
   46  O  2 XY    0.000000   0.000000   0.000000   0.000000   0.000000
   47  O  2 XZ   -0.755769   0.000000   0.000000   0.000000   0.000000
   48  O  2 YZ    0.000000  -0.678743   0.000000   0.000000   0.000000
   49  H  3  S    0.000000  -0.461686   0.162716   0.111637   0.322560
   50  H  3  S    0.000000  -1.032553  -0.079112   0.312518  -0.510883
   51  H  3  S    0.000000  -0.465053  -0.015692   0.041982  -0.422252
   52  H  3  X    0.049067   0.000000   0.000000   0.000000   0.000000
   53  H  3  Y    0.000000  -0.200668  -0.015987   0.044945   0.411353
   54  H  3  Z    0.000000   0.045280   0.074973   0.048541   0.297935
   55  H  3  X   -0.042420   0.000000   0.000000   0.000000   0.000000
   56  H  3  Y    0.000000  -0.007378  -0.089606   0.308885  -0.334313
   57  H  3  Z    0.000000  -0.309354  -0.052788  -0.111012  -0.287445
   58  H  4  S    0.000000   0.461686   0.162716   0.111637   0.322560
   59  H  4  S    0.000000   1.032553  -0.079112   0.312518  -0.510883
   60  H  4  S    0.000000   0.465053  -0.015692   0.041982  -0.422252
   61  H  4  X    0.049067   0.000000   0.000000   0.000000   0.000000
   62  H  4  Y    0.000000  -0.200668   0.015987  -0.044945  -0.411353
   63  H  4  Z    0.000000  -0.045280   0.074973   0.048541   0.297935
   64  H  4  X   -0.042420   0.000000   0.000000   0.000000   0.000000
   65  H  4  Y    0.000000  -0.007378   0.089606  -0.308885   0.334313
   66  H  4  Z    0.000000   0.309354  -0.052788  -0.111012  -0.287445

                     66
                   10.7854
                     A1  
    1  C  1  S    0.063510
    2  C  1  S    3.677688
    3  C  1  S   -0.512550
    4  C  1  X    0.000000
    5  C  1  Y    0.000000
    6  C  1  Z   -0.127304
    7  C  1  X    0.000000
    8  C  1  Y    0.000000
    9  C  1  Z    2.354153
   10  C  1  X    0.000000
   11  C  1  Y    0.000000
   12  C  1  Z   -0.347633
   13  C  1 XX    0.042312
   14  C  1 YY    0.110550
   15  C  1 ZZ   -0.011428
   16  C  1 XY    0.000000
   17  C  1 XZ    0.000000
   18  C  1 YZ    0.000000
   19  C  1 XX   -0.397701
   20  C  1 YY   -0.799151
   21  C  1 ZZ    1.044986
   22  C  1 XY    0.000000
   23  C  1 XZ    0.000000
   24  C  1 YZ    0.000000
   25  O  2  S   -8.465145
   26  O  2  S   14.600499
   27  O  2  S    1.043845
   28  O  2  X    0.000000
   29  O  2  Y    0.000000
   30  O  2  Z   -0.235633
   31  O  2  X    0.000000
   32  O  2  Y    0.000000
   33  O  2  Z    1.201345
   34  O  2  X    0.000000
   35  O  2  Y    0.000000
   36  O  2  Z    0.120828
   37  O  2 XX   -1.108445
   38  O  2 YY   -1.148979
   39  O  2 ZZ   -1.103903
   40  O  2 XY    0.000000
   41  O  2 XZ    0.000000
   42  O  2 YZ    0.000000
   43  O  2 XX   -4.641620
   44  O  2 YY   -4.531088
   45  O  2 ZZ   -4.639957
   46  O  2 XY    0.000000
   47  O  2 XZ    0.000000
   48  O  2 YZ    0.000000
   49  H  3  S   -0.026201
   50  H  3  S   -0.191776
   51  H  3  S    0.030211
   52  H  3  X    0.000000
   53  H  3  Y   -0.057739
   54  H  3  Z    0.014483
   55  H  3  X    0.000000
   56  H  3  Y   -0.240554
   57  H  3  Z    0.038185
   58  H  4  S   -0.026201
   59  H  4  S   -0.191776
   60  H  4  S    0.030211
   61  H  4  X    0.000000
   62  H  4  Y    0.057739
   63  H  4  Z    0.014483
   64  H  4  X    0.000000
   65  H  4  Y    0.240554
   66  H  4  Z    0.038185
 ...... END OF RHF CALCULATION ......
 STEP CPU TIME =     0.09 TOTAL CPU TIME =          0.3 (      0.0 MIN)
 TOTAL WALL CLOCK TIME=          0.3 SECONDS, CPU UTILIZATION IS    97.79%

     ----------------------------------------------------------------
     PROPERTY VALUES FOR THE RHF   SELF-CONSISTENT FIELD WAVEFUNCTION
     ----------------------------------------------------------------

          -----------------
          ENERGY COMPONENTS
          -----------------

         WAVEFUNCTION NORMALIZATION =       1.0000000000

                ONE ELECTRON ENERGY =     -71.2689565431
                TWO ELECTRON ENERGY =      31.0297409707
           NUCLEAR REPULSION ENERGY =      17.7912935206
                                      ------------------
                       TOTAL ENERGY =     -22.4479220517

 ELECTRON-ELECTRON POTENTIAL ENERGY =      31.0297409707
  NUCLEUS-ELECTRON POTENTIAL ENERGY =     -88.3743497745
   NUCLEUS-NUCLEUS POTENTIAL ENERGY =      17.7912935206
                                      ------------------
             TOTAL POTENTIAL ENERGY =     -39.5533152831
               TOTAL KINETIC ENERGY =      17.1053932314
                 VIRIAL RATIO (V/T) =       2.3123300791

  ...... PI ENERGY ANALYSIS ......

 ENERGY ANALYSIS:
            FOCK ENERGY=     -9.2094742809
          BARE H ENERGY=    -71.2689565431
     ELECTRONIC ENERGY =    -40.2392154120
         KINETIC ENERGY=     17.1053932314
          N-N REPULSION=     17.7912935206
           TOTAL ENERGY=    -22.4479218914
        SIGMA PART(1+2)=    -33.7518926109
               (K,V1,2)=     13.6543698186    -73.0211289473     25.6148665178
           PI PART(1+2)=     -6.4873228011
               (K,V1,2)=      3.4510234128    -15.3532208272      5.4148746133
  SIGMA SKELETON, ERROR=    -15.9605990903     -0.0000000000
             MIXED PART= 0.00000E+00 0.00000E+00 0.00000E+00 0.00000E+00
 ...... END OF PI ENERGY ANALYSIS ......

          ---------------------------------------
          MULLIKEN AND LOWDIN POPULATION ANALYSES
          ---------------------------------------

     ATOMIC MULLIKEN POPULATION IN EACH MOLECULAR ORBITAL

                      1          2          3          4          5

                  2.000000   2.000000   2.000000   2.000000   2.000000

    1             0.667246   0.775160   0.787569   0.420128   0.652052
    2             1.278800   0.391095   0.606240   1.381821   1.344082
    3             0.026977   0.416873   0.303095   0.099025   0.001933
    4             0.026977   0.416873   0.303095   0.099025   0.001933

                      6

                  2.000000

    1             0.300974
    2             1.247985
    3             0.225521
    4             0.225521

               ----- POPULATIONS IN EACH AO -----
                             MULLIKEN      LOWDIN
              1  C  1  S      1.54423     0.36115
              2  C  1  S     -0.68611     0.14607
              3  C  1  S     -0.13905     0.04749
              4  C  1  X      0.68944     0.41935
              5  C  1  Y      1.25650     0.79779
              6  C  1  Z      1.11181     0.69869
              7  C  1  X     -0.06309     0.11126
              8  C  1  Y     -0.29073     0.22298
              9  C  1  Z     -0.16670     0.17041
             10  C  1  X     -0.00453     0.01147
             11  C  1  Y     -0.01370     0.01934
             12  C  1  Z     -0.00883     0.01558
             13  C  1 XX     -0.01179     0.05676
             14  C  1 YY      0.02329     0.14470
             15  C  1 ZZ      0.04949     0.17934
             16  C  1 XY      0.00000     0.00000
             17  C  1 XZ      0.02755     0.04017
             18  C  1 YZ      0.08578     0.17511
             19  C  1 XX      0.05045     0.00130
             20  C  1 YY      0.03444     0.04509
             21  C  1 ZZ      0.06131     0.11116
             22  C  1 XY      0.00000     0.00000
             23  C  1 XZ      0.00268     0.03784
             24  C  1 YZ      0.05069     0.20346
             25  O  2  S      1.84953     0.61944
             26  O  2  S     -0.13023     0.28764
             27  O  2  S      0.01298     0.07277
             28  O  2  X      1.30422     0.93468
             29  O  2  Y      1.86695     1.38575
             30  O  2  Z      1.50605     1.13672
             31  O  2  X      0.02272     0.30339
             32  O  2  Y     -0.00626     0.32645
             33  O  2  Z     -0.21765     0.33033
             34  O  2  X     -0.00373     0.03837
             35  O  2  Y     -0.01505     0.03089
             36  O  2  Z     -0.03306     0.06134
             37  O  2 XX      0.00147     0.16980
             38  O  2 YY      0.00323     0.17142
             39  O  2 ZZ      0.02832     0.19965
             40  O  2 XY      0.00000     0.00000
             41  O  2 XZ      0.00610     0.00546
             42  O  2 YZ      0.00381     0.00425
             43  O  2 XX      0.01274     0.01828
             44  O  2 YY      0.01471     0.01897
             45  O  2 ZZ      0.00362     0.07517
             46  O  2 XY      0.00000     0.00000
             47  O  2 XZ      0.01477     0.03247
             48  O  2 YZ      0.00477     0.06812
             49  H  3  S      0.93079     0.57277
             50  H  3  S      0.10432     0.05678
             51  H  3  S      0.00086     0.01811
             52  H  3  X      0.00425     0.01132
             53  H  3  Y      0.02401     0.04778
             54  H  3  Z      0.00833     0.02214
             55  H  3  X     -0.00232     0.02145
             56  H  3  Y      0.00515     0.06886
             57  H  3  Z     -0.00197     0.02685
             58  H  4  S      0.93079     0.57277
             59  H  4  S      0.10432     0.05678
             60  H  4  S      0.00086     0.01811
             61  H  4  X      0.00425     0.01132
             62  H  4  Y      0.02401     0.04778
             63  H  4  Z      0.00833     0.02214
             64  H  4  X     -0.00232     0.02145
             65  H  4  Y      0.00515     0.06886
             66  H  4  Z     -0.00197     0.02685

          ----- MULLIKEN ATOMIC OVERLAP POPULATIONS -----
          (OFF-DIAGONAL ELEMENTS NEED TO BE MULTIPLIED BY 2)

             1           2           3           4

    1    2.3603707
    2    0.4581092   5.8202308
    3    0.3923249  -0.0141582   0.7126817
    4    0.3923249  -0.0141582  -0.0174250   0.7126817

          TOTAL MULLIKEN AND LOWDIN ATOMIC POPULATIONS
       ATOM         MULL.POP.    CHARGE          LOW.POP.     CHARGE
    1 C             3.603130    0.396870         4.016510   -0.016510
    2 O             6.250024   -0.250024         6.291356   -0.291356
    3 H             1.073423   -0.073423         0.846067    0.153933
    4 H             1.073423   -0.073423         0.846067    0.153933

          -------------------------------
          BOND ORDER AND VALENCE ANALYSIS     BOND ORDER THRESHOLD=0.050
          -------------------------------

                   BOND                       BOND                       BOND
  ATOM PAIR DIST  ORDER      ATOM PAIR DIST  ORDER      ATOM PAIR DIST  ORDER
    1   2  1.208  2.075        1   3  1.100  0.982        1   4  1.100  0.982

                       TOTAL       BONDED        FREE
      ATOM            VALENCE     VALENCE     VALENCE
    1 C                 4.039       4.039      -0.000
    2 O                 2.119       2.119      -0.000
    3 H                 1.032       1.032      -0.000
    4 H                 1.032       1.032      -0.000

          ---------------------
          ELECTROSTATIC MOMENTS
          ---------------------

 POINT   1           X           Y           Z (BOHR)    CHARGE
                -0.000000    0.000000    0.004065       -0.00 (A.U.)
         DX          DY          DZ         /D/  (DEBYE)
     0.000000   -0.000000   -2.871523    2.871523
 ...... END OF PROPERTY EVALUATION ......
 STEP CPU TIME =     0.00 TOTAL CPU TIME =          0.3 (      0.0 MIN)
 TOTAL WALL CLOCK TIME=          0.3 SECONDS, CPU UTILIZATION IS    97.82%
                580000  WORDS OF DYNAMIC MEMORY USED
 EXECUTION OF GAMESS TERMINATED NORMALLY 10:05:10 14-JUN-2022    
 DDI: 263640 bytes (0.3 MB / 0 MWords) used by master data server.

 ----------------------------------------
 CPU timing information for all processes
 ========================================
 0: 0.299 + 0.23 = 0.323
 ----------------------------------------
 ddikick.x: exited gracefully.
----- accounting info -----
Files used on the master node ccp01 were:
-rw-rw-r-- 1 filippi filippi   74543 Jun 14 10:05 ./COH2_rhf_aug-cc-pVDZ.dat
-rw-r--r-- 1 filippi filippi     788 Jun 14 10:05 ./COH2_rhf_aug-cc-pVDZ.F05
-rw-rw-r-- 1 filippi filippi 7740688 Jun 14 10:05 ./COH2_rhf_aug-cc-pVDZ.F08
-rw-rw-r-- 1 filippi filippi 1766880 Jun 14 10:05 ./COH2_rhf_aug-cc-pVDZ.F10
-rw-r--r-- 1 filippi filippi     788 Jun 14 09:57 ./COH2_rhf_aug-cc-pVDZ.inp
-rw-rw-r-- 1 filippi filippi   99379 Jun 14 10:05 ./COH2_rhf_aug-cc-pVDZ.out
-rwxrwxr-x 1 filippi filippi     143 Jun 14 10:05 ./COH2_rhf_aug-cc-pVDZ.sh*
-rw-rw-r-- 1 filippi filippi    5967 Jun 14 10:05 ./COH2_rhf_aug-cc-pVDZ.sh.out
Tue 14 Jun 2022 10:05:13 AM CEST
0.161u 0.082s 0:03.66 6.5%	0+0k 0+1320io 0pf+0w
